3
# CELL(abcABC):   35.23300    35.23300    35.23300    90.00000    90.00000    90.00000  Step:           0  Bead:       0 positions{atomic_unit}  cell{atomic_unit}
       O  0.00000e+00 -3.77945e-02  0.00000e+00
       H  1.41729e+00  9.44863e-01  0.00000e+00
       H -1.41729e+00  9.44863e-01  0.00000e+00
3
# CELL(abcABC):   35.23300    35.23300    35.23300    90.00000    90.00000    90.00000  Step:           1  Bead:       0 positions{atomic_unit}  cell{atomic_unit}
       O  0.00000e+00 -1.03635e-01  0.00000e+00
       H  1.45393e+00  9.77783e-01  0.00000e+00
       H -1.45393e+00  9.77783e-01  0.00000e+00
3
# CELL(abcABC):   35.23300    35.23300    35.23300    90.00000    90.00000    90.00000  Step:           2  Bead:       0 positions{atomic_unit}  cell{atomic_unit}
       O  0.00000e+00 -1.20677e-01  0.00000e+00
       H  1.43096e+00  9.86304e-01  0.00000e+00
       H -1.43096e+00  9.86304e-01  0.00000e+00
3
# CELL(abcABC):   35.23300    35.23300    35.23300    90.00000    90.00000    90.00000  Step:           3  Bead:       0 positions{atomic_unit}  cell{atomic_unit}
       O  0.00000e+00 -1.21337e-01  0.00000e+00
       H  1.43133e+00  9.86635e-01  0.00000e+00
       H -1.43133e+00  9.86635e-01  0.00000e+00
3
# CELL(abcABC):   35.23300    35.23300    35.23300    90.00000    90.00000    90.00000  Step:           4  Bead:       0 positions{atomic_unit}  cell{atomic_unit}
       O  0.00000e+00 -1.21385e-01  0.00000e+00
       H  1.43126e+00  9.86658e-01  0.00000e+00
       H -1.43126e+00  9.86658e-01  0.00000e+00
3
# CELL(abcABC):   35.23300    35.23300    35.23300    90.00000    90.00000    90.00000  Step:           5  Bead:       0 positions{atomic_unit}  cell{atomic_unit}
       O  0.00000e+00 -1.21387e-01  0.00000e+00
       H  1.43126e+00  9.86659e-01  0.00000e+00
       H -1.43126e+00  9.86659e-01  0.00000e+00
