1
# CELL(abcABC):  300.00000   300.00000   300.00000    90.00000    90.00000    90.00000  Step:           0  Bead:       0 positions{atomic_unit}  cell{atomic_unit}
       H -2.3998496746238462e+00  0.0000000000000000e+00  0.0000000000000000e+00
1
# CELL(abcABC):  300.00000   300.00000   300.00000    90.00000    90.00000    90.00000  Step:           0  Bead:       1 positions{atomic_unit}  cell{atomic_unit}
       H -2.1622896768005972e+00  0.0000000000000000e+00  0.0000000000000000e+00
1
# CELL(abcABC):  300.00000   300.00000   300.00000    90.00000    90.00000    90.00000  Step:           0  Bead:       2 positions{atomic_unit}  cell{atomic_unit}
       H -2.0193843755533942e+00  0.0000000000000000e+00  0.0000000000000000e+00
1
# CELL(abcABC):  300.00000   300.00000   300.00000    90.00000    90.00000    90.00000  Step:           0  Bead:       3 positions{atomic_unit}  cell{atomic_unit}
       H -2.2514755343145074e+00  0.0000000000000000e+00  0.0000000000000000e+00
1
# CELL(abcABC):  300.00000   300.00000   300.00000    90.00000    90.00000    90.00000  Step:           0  Bead:       4 positions{atomic_unit}  cell{atomic_unit}
       H -1.9143699431074235e+00  0.0000000000000000e+00  0.0000000000000000e+00
1
# CELL(abcABC):  300.00000   300.00000   300.00000    90.00000    90.00000    90.00000  Step:           0  Bead:       5 positions{atomic_unit}  cell{atomic_unit}
       H -2.0844779405077900e+00  0.0000000000000000e+00  0.0000000000000000e+00
1
# CELL(abcABC):  300.00000   300.00000   300.00000    90.00000    90.00000    90.00000  Step:           0  Bead:       6 positions{atomic_unit}  cell{atomic_unit}
       H -2.4224116981847716e+00  0.0000000000000000e+00  0.0000000000000000e+00
1
# CELL(abcABC):  300.00000   300.00000   300.00000    90.00000    90.00000    90.00000  Step:           0  Bead:       7 positions{atomic_unit}  cell{atomic_unit}
       H -2.2299262223480523e+00  0.0000000000000000e+00  0.0000000000000000e+00
1
# CELL(abcABC):  300.00000   300.00000   300.00000    90.00000    90.00000    90.00000  Step:           0  Bead:       8 positions{atomic_unit}  cell{atomic_unit}
       H -2.3714651147759973e+00  0.0000000000000000e+00  0.0000000000000000e+00
1
# CELL(abcABC):  300.00000   300.00000   300.00000    90.00000    90.00000    90.00000  Step:           0  Bead:       9 positions{atomic_unit}  cell{atomic_unit}
       H -2.6625230826527169e+00  0.0000000000000000e+00  0.0000000000000000e+00
1
# CELL(abcABC):  300.00000   300.00000   300.00000    90.00000    90.00000    90.00000  Step:           0  Bead:      10 positions{atomic_unit}  cell{atomic_unit}
       H -2.5073184593311542e+00  0.0000000000000000e+00  0.0000000000000000e+00
1
# CELL(abcABC):  300.00000   300.00000   300.00000    90.00000    90.00000    90.00000  Step:           0  Bead:      11 positions{atomic_unit}  cell{atomic_unit}
       H -2.3025705044820222e+00  0.0000000000000000e+00  0.0000000000000000e+00
1
# CELL(abcABC):  300.00000   300.00000   300.00000    90.00000    90.00000    90.00000  Step:           0  Bead:      12 positions{atomic_unit}  cell{atomic_unit}
       H -2.1093099889517060e+00  0.0000000000000000e+00  0.0000000000000000e+00
1
# CELL(abcABC):  300.00000   300.00000   300.00000    90.00000    90.00000    90.00000  Step:           0  Bead:      13 positions{atomic_unit}  cell{atomic_unit}
       H -1.8091991353775985e+00  0.0000000000000000e+00  0.0000000000000000e+00
1
# CELL(abcABC):  300.00000   300.00000   300.00000    90.00000    90.00000    90.00000  Step:           0  Bead:      14 positions{atomic_unit}  cell{atomic_unit}
       H -1.7921037961890418e+00  0.0000000000000000e+00  0.0000000000000000e+00
1
# CELL(abcABC):  300.00000   300.00000   300.00000    90.00000    90.00000    90.00000  Step:           0  Bead:      15 positions{atomic_unit}  cell{atomic_unit}
       H -1.6063055802110890e+00  0.0000000000000000e+00  0.0000000000000000e+00
1
# CELL(abcABC):  300.00000   300.00000   300.00000    90.00000    90.00000    90.00000  Step:           0  Bead:      16 positions{atomic_unit}  cell{atomic_unit}
       H -1.7379303434620095e+00  0.0000000000000000e+00  0.0000000000000000e+00
1
# CELL(abcABC):  300.00000   300.00000   300.00000    90.00000    90.00000    90.00000  Step:           0  Bead:      17 positions{atomic_unit}  cell{atomic_unit}
       H -1.7486831917652617e+00  0.0000000000000000e+00  0.0000000000000000e+00
1
# CELL(abcABC):  300.00000   300.00000   300.00000    90.00000    90.00000    90.00000  Step:           0  Bead:      18 positions{atomic_unit}  cell{atomic_unit}
       H -1.7208815054617965e+00  0.0000000000000000e+00  0.0000000000000000e+00
1
# CELL(abcABC):  300.00000   300.00000   300.00000    90.00000    90.00000    90.00000  Step:           0  Bead:      19 positions{atomic_unit}  cell{atomic_unit}
       H -2.0044664728360448e+00  0.0000000000000000e+00  0.0000000000000000e+00
1
# CELL(abcABC):  300.00000   300.00000   300.00000    90.00000    90.00000    90.00000  Step:           0  Bead:      20 positions{atomic_unit}  cell{atomic_unit}
       H -2.3382368844072379e+00  0.0000000000000000e+00  0.0000000000000000e+00
1
# CELL(abcABC):  300.00000   300.00000   300.00000    90.00000    90.00000    90.00000  Step:           0  Bead:      21 positions{atomic_unit}  cell{atomic_unit}
       H -1.9100027409208162e+00  0.0000000000000000e+00  0.0000000000000000e+00
1
# CELL(abcABC):  300.00000   300.00000   300.00000    90.00000    90.00000    90.00000  Step:           0  Bead:      22 positions{atomic_unit}  cell{atomic_unit}
       H -1.7130735011632867e+00  0.0000000000000000e+00  0.0000000000000000e+00
1
# CELL(abcABC):  300.00000   300.00000   300.00000    90.00000    90.00000    90.00000  Step:           0  Bead:      23 positions{atomic_unit}  cell{atomic_unit}
       H -1.9902617325939580e+00  0.0000000000000000e+00  0.0000000000000000e+00
1
# CELL(abcABC):  300.00000   300.00000   300.00000    90.00000    90.00000    90.00000  Step:           0  Bead:      24 positions{atomic_unit}  cell{atomic_unit}
       H -1.6836813446625436e+00  0.0000000000000000e+00  0.0000000000000000e+00
1
# CELL(abcABC):  300.00000   300.00000   300.00000    90.00000    90.00000    90.00000  Step:           0  Bead:      25 positions{atomic_unit}  cell{atomic_unit}
       H -1.8498548562328281e+00  0.0000000000000000e+00  0.0000000000000000e+00
1
# CELL(abcABC):  300.00000   300.00000   300.00000    90.00000    90.00000    90.00000  Step:           0  Bead:      26 positions{atomic_unit}  cell{atomic_unit}
       H -2.0722382234600492e+00  0.0000000000000000e+00  0.0000000000000000e+00
1
# CELL(abcABC):  300.00000   300.00000   300.00000    90.00000    90.00000    90.00000  Step:           0  Bead:      27 positions{atomic_unit}  cell{atomic_unit}
       H -2.3330157310919266e+00  0.0000000000000000e+00  0.0000000000000000e+00
1
# CELL(abcABC):  300.00000   300.00000   300.00000    90.00000    90.00000    90.00000  Step:           0  Bead:      28 positions{atomic_unit}  cell{atomic_unit}
       H -2.4050480801732199e+00  0.0000000000000000e+00  0.0000000000000000e+00
1
# CELL(abcABC):  300.00000   300.00000   300.00000    90.00000    90.00000    90.00000  Step:           0  Bead:      29 positions{atomic_unit}  cell{atomic_unit}
       H -2.4723325714573283e+00  0.0000000000000000e+00  0.0000000000000000e+00
1
# CELL(abcABC):  300.00000   300.00000   300.00000    90.00000    90.00000    90.00000  Step:           0  Bead:      30 positions{atomic_unit}  cell{atomic_unit}
       H -2.3328119887944467e+00  0.0000000000000000e+00  0.0000000000000000e+00
1
# CELL(abcABC):  300.00000   300.00000   300.00000    90.00000    90.00000    90.00000  Step:           0  Bead:      31 positions{atomic_unit}  cell{atomic_unit}
       H -2.3948427492198854e+00  0.0000000000000000e+00  0.0000000000000000e+00
