1
# CELL(abcABC):  566.91783   566.91783   566.91783    90.00000    90.00000    90.00000  Step:           0  Bead:       0 x_centroid{atomic_unit}  cell{atomic_unit}
       H  0.00000e+00  0.00000e+00  0.00000e+00
1
# CELL(abcABC):  566.91783   566.91783   566.91783    90.00000    90.00000    90.00000  Step:           1  Bead:       0 x_centroid{atomic_unit}  cell{atomic_unit}
       H  6.42295e-04  0.00000e+00  0.00000e+00
1
# CELL(abcABC):  566.91783   566.91783   566.91783    90.00000    90.00000    90.00000  Step:           2  Bead:       0 x_centroid{atomic_unit}  cell{atomic_unit}
       H  1.28601e-03  0.00000e+00  0.00000e+00
1
# CELL(abcABC):  566.91783   566.91783   566.91783    90.00000    90.00000    90.00000  Step:           3  Bead:       0 x_centroid{atomic_unit}  cell{atomic_unit}
       H  1.93258e-03  0.00000e+00  0.00000e+00
1
# CELL(abcABC):  566.91783   566.91783   566.91783    90.00000    90.00000    90.00000  Step:           4  Bead:       0 x_centroid{atomic_unit}  cell{atomic_unit}
       H  2.58344e-03  0.00000e+00  0.00000e+00
1
# CELL(abcABC):  566.91783   566.91783   566.91783    90.00000    90.00000    90.00000  Step:           5  Bead:       0 x_centroid{atomic_unit}  cell{atomic_unit}
       H  3.24001e-03  0.00000e+00  0.00000e+00
1
# CELL(abcABC):  566.91783   566.91783   566.91783    90.00000    90.00000    90.00000  Step:           6  Bead:       0 x_centroid{atomic_unit}  cell{atomic_unit}
       H  3.90376e-03  0.00000e+00  0.00000e+00
1
# CELL(abcABC):  566.91783   566.91783   566.91783    90.00000    90.00000    90.00000  Step:           7  Bead:       0 x_centroid{atomic_unit}  cell{atomic_unit}
       H  4.57616e-03  0.00000e+00  0.00000e+00
1
# CELL(abcABC):  566.91783   566.91783   566.91783    90.00000    90.00000    90.00000  Step:           8  Bead:       0 x_centroid{atomic_unit}  cell{atomic_unit}
       H  5.25870e-03  0.00000e+00  0.00000e+00
1
# CELL(abcABC):  566.91783   566.91783   566.91783    90.00000    90.00000    90.00000  Step:           9  Bead:       0 x_centroid{atomic_unit}  cell{atomic_unit}
       H  5.95289e-03  0.00000e+00  0.00000e+00
1
# CELL(abcABC):  566.91783   566.91783   566.91783    90.00000    90.00000    90.00000  Step:          10  Bead:       0 x_centroid{atomic_unit}  cell{atomic_unit}
       H  6.66026e-03  0.00000e+00  0.00000e+00
1
# CELL(abcABC):  566.91783   566.91783   566.91783    90.00000    90.00000    90.00000  Step:          11  Bead:       0 x_centroid{atomic_unit}  cell{atomic_unit}
       H  7.38239e-03  0.00000e+00  0.00000e+00
1
# CELL(abcABC):  566.91783   566.91783   566.91783    90.00000    90.00000    90.00000  Step:          12  Bead:       0 x_centroid{atomic_unit}  cell{atomic_unit}
       H  8.12086e-03  0.00000e+00  0.00000e+00
1
# CELL(abcABC):  566.91783   566.91783   566.91783    90.00000    90.00000    90.00000  Step:          13  Bead:       0 x_centroid{atomic_unit}  cell{atomic_unit}
       H  8.87731e-03  0.00000e+00  0.00000e+00
1
# CELL(abcABC):  566.91783   566.91783   566.91783    90.00000    90.00000    90.00000  Step:          14  Bead:       0 x_centroid{atomic_unit}  cell{atomic_unit}
       H  9.65341e-03  0.00000e+00  0.00000e+00
1
# CELL(abcABC):  566.91783   566.91783   566.91783    90.00000    90.00000    90.00000  Step:          15  Bead:       0 x_centroid{atomic_unit}  cell{atomic_unit}
       H  1.04509e-02  0.00000e+00  0.00000e+00
1
# CELL(abcABC):  566.91783   566.91783   566.91783    90.00000    90.00000    90.00000  Step:          16  Bead:       0 x_centroid{atomic_unit}  cell{atomic_unit}
       H  1.12715e-02  0.00000e+00  0.00000e+00
1
# CELL(abcABC):  566.91783   566.91783   566.91783    90.00000    90.00000    90.00000  Step:          17  Bead:       0 x_centroid{atomic_unit}  cell{atomic_unit}
       H  1.21170e-02  0.00000e+00  0.00000e+00
1
# CELL(abcABC):  566.91783   566.91783   566.91783    90.00000    90.00000    90.00000  Step:          18  Bead:       0 x_centroid{atomic_unit}  cell{atomic_unit}
       H  1.29894e-02  0.00000e+00  0.00000e+00
1
# CELL(abcABC):  566.91783   566.91783   566.91783    90.00000    90.00000    90.00000  Step:          19  Bead:       0 x_centroid{atomic_unit}  cell{atomic_unit}
       H  1.38906e-02  0.00000e+00  0.00000e+00
1
# CELL(abcABC):  566.91783   566.91783   566.91783    90.00000    90.00000    90.00000  Step:          20  Bead:       0 x_centroid{atomic_unit}  cell{atomic_unit}
       H  1.48225e-02  0.00000e+00  0.00000e+00
1
# CELL(abcABC):  566.91783   566.91783   566.91783    90.00000    90.00000    90.00000  Step:          21  Bead:       0 x_centroid{atomic_unit}  cell{atomic_unit}
       H  1.57873e-02  0.00000e+00  0.00000e+00
1
# CELL(abcABC):  566.91783   566.91783   566.91783    90.00000    90.00000    90.00000  Step:          22  Bead:       0 x_centroid{atomic_unit}  cell{atomic_unit}
       H  1.67870e-02  0.00000e+00  0.00000e+00
1
# CELL(abcABC):  566.91783   566.91783   566.91783    90.00000    90.00000    90.00000  Step:          23  Bead:       0 x_centroid{atomic_unit}  cell{atomic_unit}
       H  1.78239e-02  0.00000e+00  0.00000e+00
1
# CELL(abcABC):  566.91783   566.91783   566.91783    90.00000    90.00000    90.00000  Step:          24  Bead:       0 x_centroid{atomic_unit}  cell{atomic_unit}
       H  1.89003e-02  0.00000e+00  0.00000e+00
1
# CELL(abcABC):  566.91783   566.91783   566.91783    90.00000    90.00000    90.00000  Step:          25  Bead:       0 x_centroid{atomic_unit}  cell{atomic_unit}
       H  2.00185e-02  0.00000e+00  0.00000e+00
1
# CELL(abcABC):  566.91783   566.91783   566.91783    90.00000    90.00000    90.00000  Step:          26  Bead:       0 x_centroid{atomic_unit}  cell{atomic_unit}
       H  2.11810e-02  0.00000e+00  0.00000e+00
1
# CELL(abcABC):  566.91783   566.91783   566.91783    90.00000    90.00000    90.00000  Step:          27  Bead:       0 x_centroid{atomic_unit}  cell{atomic_unit}
       H  2.23905e-02  0.00000e+00  0.00000e+00
1
# CELL(abcABC):  566.91783   566.91783   566.91783    90.00000    90.00000    90.00000  Step:          28  Bead:       0 x_centroid{atomic_unit}  cell{atomic_unit}
       H  2.36495e-02  0.00000e+00  0.00000e+00
1
# CELL(abcABC):  566.91783   566.91783   566.91783    90.00000    90.00000    90.00000  Step:          29  Bead:       0 x_centroid{atomic_unit}  cell{atomic_unit}
       H  2.49609e-02  0.00000e+00  0.00000e+00
1
# CELL(abcABC):  566.91783   566.91783   566.91783    90.00000    90.00000    90.00000  Step:          30  Bead:       0 x_centroid{atomic_unit}  cell{atomic_unit}
       H  2.63276e-02  0.00000e+00  0.00000e+00
1
# CELL(abcABC):  566.91783   566.91783   566.91783    90.00000    90.00000    90.00000  Step:          31  Bead:       0 x_centroid{atomic_unit}  cell{atomic_unit}
       H  2.77526e-02  0.00000e+00  0.00000e+00
1
# CELL(abcABC):  566.91783   566.91783   566.91783    90.00000    90.00000    90.00000  Step:          32  Bead:       0 x_centroid{atomic_unit}  cell{atomic_unit}
       H  2.92390e-02  0.00000e+00  0.00000e+00
1
# CELL(abcABC):  566.91783   566.91783   566.91783    90.00000    90.00000    90.00000  Step:          33  Bead:       0 x_centroid{atomic_unit}  cell{atomic_unit}
       H  3.07902e-02  0.00000e+00  0.00000e+00
1
# CELL(abcABC):  566.91783   566.91783   566.91783    90.00000    90.00000    90.00000  Step:          34  Bead:       0 x_centroid{atomic_unit}  cell{atomic_unit}
       H  3.24096e-02  0.00000e+00  0.00000e+00
1
# CELL(abcABC):  566.91783   566.91783   566.91783    90.00000    90.00000    90.00000  Step:          35  Bead:       0 x_centroid{atomic_unit}  cell{atomic_unit}
       H  3.41007e-02  0.00000e+00  0.00000e+00
1
# CELL(abcABC):  566.91783   566.91783   566.91783    90.00000    90.00000    90.00000  Step:          36  Bead:       0 x_centroid{atomic_unit}  cell{atomic_unit}
       H  3.58674e-02  0.00000e+00  0.00000e+00
1
# CELL(abcABC):  566.91783   566.91783   566.91783    90.00000    90.00000    90.00000  Step:          37  Bead:       0 x_centroid{atomic_unit}  cell{atomic_unit}
       H  3.77135e-02  0.00000e+00  0.00000e+00
1
# CELL(abcABC):  566.91783   566.91783   566.91783    90.00000    90.00000    90.00000  Step:          38  Bead:       0 x_centroid{atomic_unit}  cell{atomic_unit}
       H  3.96431e-02  0.00000e+00  0.00000e+00
1
# CELL(abcABC):  566.91783   566.91783   566.91783    90.00000    90.00000    90.00000  Step:          39  Bead:       0 x_centroid{atomic_unit}  cell{atomic_unit}
       H  4.16606e-02  0.00000e+00  0.00000e+00
1
# CELL(abcABC):  566.91783   566.91783   566.91783    90.00000    90.00000    90.00000  Step:          40  Bead:       0 x_centroid{atomic_unit}  cell{atomic_unit}
       H  4.37702e-02  0.00000e+00  0.00000e+00
1
# CELL(abcABC):  566.91783   566.91783   566.91783    90.00000    90.00000    90.00000  Step:          41  Bead:       0 x_centroid{atomic_unit}  cell{atomic_unit}
       H  4.59767e-02  0.00000e+00  0.00000e+00
1
# CELL(abcABC):  566.91783   566.91783   566.91783    90.00000    90.00000    90.00000  Step:          42  Bead:       0 x_centroid{atomic_unit}  cell{atomic_unit}
       H  4.82850e-02  0.00000e+00  0.00000e+00
1
# CELL(abcABC):  566.91783   566.91783   566.91783    90.00000    90.00000    90.00000  Step:          43  Bead:       0 x_centroid{atomic_unit}  cell{atomic_unit}
       H  5.07002e-02  0.00000e+00  0.00000e+00
1
# CELL(abcABC):  566.91783   566.91783   566.91783    90.00000    90.00000    90.00000  Step:          44  Bead:       0 x_centroid{atomic_unit}  cell{atomic_unit}
       H  5.32276e-02  0.00000e+00  0.00000e+00
1
# CELL(abcABC):  566.91783   566.91783   566.91783    90.00000    90.00000    90.00000  Step:          45  Bead:       0 x_centroid{atomic_unit}  cell{atomic_unit}
       H  5.58728e-02  0.00000e+00  0.00000e+00
1
# CELL(abcABC):  566.91783   566.91783   566.91783    90.00000    90.00000    90.00000  Step:          46  Bead:       0 x_centroid{atomic_unit}  cell{atomic_unit}
       H  5.86417e-02  0.00000e+00  0.00000e+00
1
# CELL(abcABC):  566.91783   566.91783   566.91783    90.00000    90.00000    90.00000  Step:          47  Bead:       0 x_centroid{atomic_unit}  cell{atomic_unit}
       H  6.15403e-02  0.00000e+00  0.00000e+00
1
# CELL(abcABC):  566.91783   566.91783   566.91783    90.00000    90.00000    90.00000  Step:          48  Bead:       0 x_centroid{atomic_unit}  cell{atomic_unit}
       H  6.45751e-02  0.00000e+00  0.00000e+00
1
# CELL(abcABC):  566.91783   566.91783   566.91783    90.00000    90.00000    90.00000  Step:          49  Bead:       0 x_centroid{atomic_unit}  cell{atomic_unit}
       H  6.77527e-02  0.00000e+00  0.00000e+00
1
# CELL(abcABC):  566.91783   566.91783   566.91783    90.00000    90.00000    90.00000  Step:          50  Bead:       0 x_centroid{atomic_unit}  cell{atomic_unit}
       H  7.10801e-02  0.00000e+00  0.00000e+00
1
# CELL(abcABC):  566.91783   566.91783   566.91783    90.00000    90.00000    90.00000  Step:          51  Bead:       0 x_centroid{atomic_unit}  cell{atomic_unit}
       H  7.45647e-02  0.00000e+00  0.00000e+00
1
# CELL(abcABC):  566.91783   566.91783   566.91783    90.00000    90.00000    90.00000  Step:          52  Bead:       0 x_centroid{atomic_unit}  cell{atomic_unit}
       H  7.82140e-02  0.00000e+00  0.00000e+00
1
# CELL(abcABC):  566.91783   566.91783   566.91783    90.00000    90.00000    90.00000  Step:          53  Bead:       0 x_centroid{atomic_unit}  cell{atomic_unit}
       H  8.20363e-02  0.00000e+00  0.00000e+00
1
# CELL(abcABC):  566.91783   566.91783   566.91783    90.00000    90.00000    90.00000  Step:          54  Bead:       0 x_centroid{atomic_unit}  cell{atomic_unit}
       H  8.60398e-02  0.00000e+00  0.00000e+00
1
# CELL(abcABC):  566.91783   566.91783   566.91783    90.00000    90.00000    90.00000  Step:          55  Bead:       0 x_centroid{atomic_unit}  cell{atomic_unit}
       H  9.02333e-02  0.00000e+00  0.00000e+00
1
# CELL(abcABC):  566.91783   566.91783   566.91783    90.00000    90.00000    90.00000  Step:          56  Bead:       0 x_centroid{atomic_unit}  cell{atomic_unit}
       H  9.46261e-02  0.00000e+00  0.00000e+00
1
# CELL(abcABC):  566.91783   566.91783   566.91783    90.00000    90.00000    90.00000  Step:          57  Bead:       0 x_centroid{atomic_unit}  cell{atomic_unit}
       H  9.92278e-02  0.00000e+00  0.00000e+00
1
# CELL(abcABC):  566.91783   566.91783   566.91783    90.00000    90.00000    90.00000  Step:          58  Bead:       0 x_centroid{atomic_unit}  cell{atomic_unit}
       H  1.04048e-01  0.00000e+00  0.00000e+00
1
# CELL(abcABC):  566.91783   566.91783   566.91783    90.00000    90.00000    90.00000  Step:          59  Bead:       0 x_centroid{atomic_unit}  cell{atomic_unit}
       H  1.09098e-01  0.00000e+00  0.00000e+00
1
# CELL(abcABC):  566.91783   566.91783   566.91783    90.00000    90.00000    90.00000  Step:          60  Bead:       0 x_centroid{atomic_unit}  cell{atomic_unit}
       H  1.14389e-01  0.00000e+00  0.00000e+00
1
# CELL(abcABC):  566.91783   566.91783   566.91783    90.00000    90.00000    90.00000  Step:          61  Bead:       0 x_centroid{atomic_unit}  cell{atomic_unit}
       H  1.19932e-01  0.00000e+00  0.00000e+00
1
# CELL(abcABC):  566.91783   566.91783   566.91783    90.00000    90.00000    90.00000  Step:          62  Bead:       0 x_centroid{atomic_unit}  cell{atomic_unit}
       H  1.25739e-01  0.00000e+00  0.00000e+00
1
# CELL(abcABC):  566.91783   566.91783   566.91783    90.00000    90.00000    90.00000  Step:          63  Bead:       0 x_centroid{atomic_unit}  cell{atomic_unit}
       H  1.31824e-01  0.00000e+00  0.00000e+00
1
# CELL(abcABC):  566.91783   566.91783   566.91783    90.00000    90.00000    90.00000  Step:          64  Bead:       0 x_centroid{atomic_unit}  cell{atomic_unit}
       H  1.38198e-01  0.00000e+00  0.00000e+00
1
# CELL(abcABC):  566.91783   566.91783   566.91783    90.00000    90.00000    90.00000  Step:          65  Bead:       0 x_centroid{atomic_unit}  cell{atomic_unit}
       H  1.44877e-01  0.00000e+00  0.00000e+00
1
# CELL(abcABC):  566.91783   566.91783   566.91783    90.00000    90.00000    90.00000  Step:          66  Bead:       0 x_centroid{atomic_unit}  cell{atomic_unit}
       H  1.51875e-01  0.00000e+00  0.00000e+00
1
# CELL(abcABC):  566.91783   566.91783   566.91783    90.00000    90.00000    90.00000  Step:          67  Bead:       0 x_centroid{atomic_unit}  cell{atomic_unit}
       H  1.59207e-01  0.00000e+00  0.00000e+00
1
# CELL(abcABC):  566.91783   566.91783   566.91783    90.00000    90.00000    90.00000  Step:          68  Bead:       0 x_centroid{atomic_unit}  cell{atomic_unit}
       H  1.66888e-01  0.00000e+00  0.00000e+00
1
# CELL(abcABC):  566.91783   566.91783   566.91783    90.00000    90.00000    90.00000  Step:          69  Bead:       0 x_centroid{atomic_unit}  cell{atomic_unit}
       H  1.74936e-01  0.00000e+00  0.00000e+00
1
# CELL(abcABC):  566.91783   566.91783   566.91783    90.00000    90.00000    90.00000  Step:          70  Bead:       0 x_centroid{atomic_unit}  cell{atomic_unit}
       H  1.83368e-01  0.00000e+00  0.00000e+00
1
# CELL(abcABC):  566.91783   566.91783   566.91783    90.00000    90.00000    90.00000  Step:          71  Bead:       0 x_centroid{atomic_unit}  cell{atomic_unit}
       H  1.92203e-01  0.00000e+00  0.00000e+00
1
# CELL(abcABC):  566.91783   566.91783   566.91783    90.00000    90.00000    90.00000  Step:          72  Bead:       0 x_centroid{atomic_unit}  cell{atomic_unit}
       H  2.01458e-01  0.00000e+00  0.00000e+00
1
# CELL(abcABC):  566.91783   566.91783   566.91783    90.00000    90.00000    90.00000  Step:          73  Bead:       0 x_centroid{atomic_unit}  cell{atomic_unit}
       H  2.11155e-01  0.00000e+00  0.00000e+00
1
# CELL(abcABC):  566.91783   566.91783   566.91783    90.00000    90.00000    90.00000  Step:          74  Bead:       0 x_centroid{atomic_unit}  cell{atomic_unit}
       H  2.21313e-01  0.00000e+00  0.00000e+00
1
# CELL(abcABC):  566.91783   566.91783   566.91783    90.00000    90.00000    90.00000  Step:          75  Bead:       0 x_centroid{atomic_unit}  cell{atomic_unit}
       H  2.31955e-01  0.00000e+00  0.00000e+00
1
# CELL(abcABC):  566.91783   566.91783   566.91783    90.00000    90.00000    90.00000  Step:          76  Bead:       0 x_centroid{atomic_unit}  cell{atomic_unit}
       H  2.43103e-01  0.00000e+00  0.00000e+00
1
# CELL(abcABC):  566.91783   566.91783   566.91783    90.00000    90.00000    90.00000  Step:          77  Bead:       0 x_centroid{atomic_unit}  cell{atomic_unit}
       H  2.54781e-01  0.00000e+00  0.00000e+00
1
# CELL(abcABC):  566.91783   566.91783   566.91783    90.00000    90.00000    90.00000  Step:          78  Bead:       0 x_centroid{atomic_unit}  cell{atomic_unit}
       H  2.67014e-01  0.00000e+00  0.00000e+00
1
# CELL(abcABC):  566.91783   566.91783   566.91783    90.00000    90.00000    90.00000  Step:          79  Bead:       0 x_centroid{atomic_unit}  cell{atomic_unit}
       H  2.79827e-01  0.00000e+00  0.00000e+00
1
# CELL(abcABC):  566.91783   566.91783   566.91783    90.00000    90.00000    90.00000  Step:          80  Bead:       0 x_centroid{atomic_unit}  cell{atomic_unit}
       H  2.93247e-01  0.00000e+00  0.00000e+00
1
# CELL(abcABC):  566.91783   566.91783   566.91783    90.00000    90.00000    90.00000  Step:          81  Bead:       0 x_centroid{atomic_unit}  cell{atomic_unit}
       H  3.07302e-01  0.00000e+00  0.00000e+00
1
# CELL(abcABC):  566.91783   566.91783   566.91783    90.00000    90.00000    90.00000  Step:          82  Bead:       0 x_centroid{atomic_unit}  cell{atomic_unit}
       H  3.22021e-01  0.00000e+00  0.00000e+00
1
# CELL(abcABC):  566.91783   566.91783   566.91783    90.00000    90.00000    90.00000  Step:          83  Bead:       0 x_centroid{atomic_unit}  cell{atomic_unit}
       H  3.37435e-01  0.00000e+00  0.00000e+00
1
# CELL(abcABC):  566.91783   566.91783   566.91783    90.00000    90.00000    90.00000  Step:          84  Bead:       0 x_centroid{atomic_unit}  cell{atomic_unit}
       H  3.53574e-01  0.00000e+00  0.00000e+00
1
# CELL(abcABC):  566.91783   566.91783   566.91783    90.00000    90.00000    90.00000  Step:          85  Bead:       0 x_centroid{atomic_unit}  cell{atomic_unit}
       H  3.70471e-01  0.00000e+00  0.00000e+00
1
# CELL(abcABC):  566.91783   566.91783   566.91783    90.00000    90.00000    90.00000  Step:          86  Bead:       0 x_centroid{atomic_unit}  cell{atomic_unit}
       H  3.88160e-01  0.00000e+00  0.00000e+00
1
# CELL(abcABC):  566.91783   566.91783   566.91783    90.00000    90.00000    90.00000  Step:          87  Bead:       0 x_centroid{atomic_unit}  cell{atomic_unit}
       H  4.06676e-01  0.00000e+00  0.00000e+00
1
# CELL(abcABC):  566.91783   566.91783   566.91783    90.00000    90.00000    90.00000  Step:          88  Bead:       0 x_centroid{atomic_unit}  cell{atomic_unit}
       H  4.26054e-01  0.00000e+00  0.00000e+00
1
# CELL(abcABC):  566.91783   566.91783   566.91783    90.00000    90.00000    90.00000  Step:          89  Bead:       0 x_centroid{atomic_unit}  cell{atomic_unit}
       H  4.46332e-01  0.00000e+00  0.00000e+00
1
# CELL(abcABC):  566.91783   566.91783   566.91783    90.00000    90.00000    90.00000  Step:          90  Bead:       0 x_centroid{atomic_unit}  cell{atomic_unit}
       H  4.67548e-01  0.00000e+00  0.00000e+00
1
# CELL(abcABC):  566.91783   566.91783   566.91783    90.00000    90.00000    90.00000  Step:          91  Bead:       0 x_centroid{atomic_unit}  cell{atomic_unit}
       H  4.89741e-01  0.00000e+00  0.00000e+00
1
# CELL(abcABC):  566.91783   566.91783   566.91783    90.00000    90.00000    90.00000  Step:          92  Bead:       0 x_centroid{atomic_unit}  cell{atomic_unit}
       H  5.12953e-01  0.00000e+00  0.00000e+00
1
# CELL(abcABC):  566.91783   566.91783   566.91783    90.00000    90.00000    90.00000  Step:          93  Bead:       0 x_centroid{atomic_unit}  cell{atomic_unit}
       H  5.37225e-01  0.00000e+00  0.00000e+00
1
# CELL(abcABC):  566.91783   566.91783   566.91783    90.00000    90.00000    90.00000  Step:          94  Bead:       0 x_centroid{atomic_unit}  cell{atomic_unit}
       H  5.62599e-01  0.00000e+00  0.00000e+00
1
# CELL(abcABC):  566.91783   566.91783   566.91783    90.00000    90.00000    90.00000  Step:          95  Bead:       0 x_centroid{atomic_unit}  cell{atomic_unit}
       H  5.89119e-01  0.00000e+00  0.00000e+00
1
# CELL(abcABC):  566.91783   566.91783   566.91783    90.00000    90.00000    90.00000  Step:          96  Bead:       0 x_centroid{atomic_unit}  cell{atomic_unit}
       H  6.16829e-01  0.00000e+00  0.00000e+00
1
# CELL(abcABC):  566.91783   566.91783   566.91783    90.00000    90.00000    90.00000  Step:          97  Bead:       0 x_centroid{atomic_unit}  cell{atomic_unit}
       H  6.45774e-01  0.00000e+00  0.00000e+00
1
# CELL(abcABC):  566.91783   566.91783   566.91783    90.00000    90.00000    90.00000  Step:          98  Bead:       0 x_centroid{atomic_unit}  cell{atomic_unit}
       H  6.75998e-01  0.00000e+00  0.00000e+00
1
# CELL(abcABC):  566.91783   566.91783   566.91783    90.00000    90.00000    90.00000  Step:          99  Bead:       0 x_centroid{atomic_unit}  cell{atomic_unit}
       H  7.07546e-01  0.00000e+00  0.00000e+00
1
# CELL(abcABC):  566.91783   566.91783   566.91783    90.00000    90.00000    90.00000  Step:         100  Bead:       0 x_centroid{atomic_unit}  cell{atomic_unit}
       H  7.40463e-01  0.00000e+00  0.00000e+00
