1
# CELL(abcABC):  566.91783   566.91783   566.91783    90.00000    90.00000    90.00000  Step:           0  Bead:       0 p_centroid{atomic_unit}  cell{atomic_unit}
       H  5.70919e-02  0.00000e+00  0.00000e+00
1
# CELL(abcABC):  566.91783   566.91783   566.91783    90.00000    90.00000    90.00000  Step:           1  Bead:       0 p_centroid{atomic_unit}  cell{atomic_unit}
       H  5.71552e-02  0.00000e+00  0.00000e+00
1
# CELL(abcABC):  566.91783   566.91783   566.91783    90.00000    90.00000    90.00000  Step:           2  Bead:       0 p_centroid{atomic_unit}  cell{atomic_unit}
       H  5.73452e-02  0.00000e+00  0.00000e+00
1
# CELL(abcABC):  566.91783   566.91783   566.91783    90.00000    90.00000    90.00000  Step:           3  Bead:       0 p_centroid{atomic_unit}  cell{atomic_unit}
       H  5.76622e-02  0.00000e+00  0.00000e+00
1
# CELL(abcABC):  566.91783   566.91783   566.91783    90.00000    90.00000    90.00000  Step:           4  Bead:       0 p_centroid{atomic_unit}  cell{atomic_unit}
       H  5.81069e-02  0.00000e+00  0.00000e+00
1
# CELL(abcABC):  566.91783   566.91783   566.91783    90.00000    90.00000    90.00000  Step:           5  Bead:       0 p_centroid{atomic_unit}  cell{atomic_unit}
       H  5.86802e-02  0.00000e+00  0.00000e+00
1
# CELL(abcABC):  566.91783   566.91783   566.91783    90.00000    90.00000    90.00000  Step:           6  Bead:       0 p_centroid{atomic_unit}  cell{atomic_unit}
       H  5.93835e-02  0.00000e+00  0.00000e+00
1
# CELL(abcABC):  566.91783   566.91783   566.91783    90.00000    90.00000    90.00000  Step:           7  Bead:       0 p_centroid{atomic_unit}  cell{atomic_unit}
       H  6.02184e-02  0.00000e+00  0.00000e+00
1
# CELL(abcABC):  566.91783   566.91783   566.91783    90.00000    90.00000    90.00000  Step:           8  Bead:       0 p_centroid{atomic_unit}  cell{atomic_unit}
       H  6.11867e-02  0.00000e+00  0.00000e+00
1
# CELL(abcABC):  566.91783   566.91783   566.91783    90.00000    90.00000    90.00000  Step:           9  Bead:       0 p_centroid{atomic_unit}  cell{atomic_unit}
       H  6.22906e-02  0.00000e+00  0.00000e+00
1
# CELL(abcABC):  566.91783   566.91783   566.91783    90.00000    90.00000    90.00000  Step:          10  Bead:       0 p_centroid{atomic_unit}  cell{atomic_unit}
       H  6.35322e-02  0.00000e+00  0.00000e+00
1
# CELL(abcABC):  566.91783   566.91783   566.91783    90.00000    90.00000    90.00000  Step:          11  Bead:       0 p_centroid{atomic_unit}  cell{atomic_unit}
       H  6.49143e-02  0.00000e+00  0.00000e+00
1
# CELL(abcABC):  566.91783   566.91783   566.91783    90.00000    90.00000    90.00000  Step:          12  Bead:       0 p_centroid{atomic_unit}  cell{atomic_unit}
       H  6.64397e-02  0.00000e+00  0.00000e+00
1
# CELL(abcABC):  566.91783   566.91783   566.91783    90.00000    90.00000    90.00000  Step:          13  Bead:       0 p_centroid{atomic_unit}  cell{atomic_unit}
       H  6.81120e-02  0.00000e+00  0.00000e+00
1
# CELL(abcABC):  566.91783   566.91783   566.91783    90.00000    90.00000    90.00000  Step:          14  Bead:       0 p_centroid{atomic_unit}  cell{atomic_unit}
       H  6.99351e-02  0.00000e+00  0.00000e+00
1
# CELL(abcABC):  566.91783   566.91783   566.91783    90.00000    90.00000    90.00000  Step:          15  Bead:       0 p_centroid{atomic_unit}  cell{atomic_unit}
       H  7.19133e-02  0.00000e+00  0.00000e+00
1
# CELL(abcABC):  566.91783   566.91783   566.91783    90.00000    90.00000    90.00000  Step:          16  Bead:       0 p_centroid{atomic_unit}  cell{atomic_unit}
       H  7.40508e-02  0.00000e+00  0.00000e+00
1
# CELL(abcABC):  566.91783   566.91783   566.91783    90.00000    90.00000    90.00000  Step:          17  Bead:       0 p_centroid{atomic_unit}  cell{atomic_unit}
       H  7.63526e-02  0.00000e+00  0.00000e+00
1
# CELL(abcABC):  566.91783   566.91783   566.91783    90.00000    90.00000    90.00000  Step:          18  Bead:       0 p_centroid{atomic_unit}  cell{atomic_unit}
       H  7.88235e-02  0.00000e+00  0.00000e+00
1
# CELL(abcABC):  566.91783   566.91783   566.91783    90.00000    90.00000    90.00000  Step:          19  Bead:       0 p_centroid{atomic_unit}  cell{atomic_unit}
       H  8.14691e-02  0.00000e+00  0.00000e+00
1
# CELL(abcABC):  566.91783   566.91783   566.91783    90.00000    90.00000    90.00000  Step:          20  Bead:       0 p_centroid{atomic_unit}  cell{atomic_unit}
       H  8.42951e-02  0.00000e+00  0.00000e+00
1
# CELL(abcABC):  566.91783   566.91783   566.91783    90.00000    90.00000    90.00000  Step:          21  Bead:       0 p_centroid{atomic_unit}  cell{atomic_unit}
       H  8.73079e-02  0.00000e+00  0.00000e+00
1
# CELL(abcABC):  566.91783   566.91783   566.91783    90.00000    90.00000    90.00000  Step:          22  Bead:       0 p_centroid{atomic_unit}  cell{atomic_unit}
       H  9.05142e-02  0.00000e+00  0.00000e+00
1
# CELL(abcABC):  566.91783   566.91783   566.91783    90.00000    90.00000    90.00000  Step:          23  Bead:       0 p_centroid{atomic_unit}  cell{atomic_unit}
       H  9.39210e-02  0.00000e+00  0.00000e+00
1
# CELL(abcABC):  566.91783   566.91783   566.91783    90.00000    90.00000    90.00000  Step:          24  Bead:       0 p_centroid{atomic_unit}  cell{atomic_unit}
       H  9.75356e-02  0.00000e+00  0.00000e+00
1
# CELL(abcABC):  566.91783   566.91783   566.91783    90.00000    90.00000    90.00000  Step:          25  Bead:       0 p_centroid{atomic_unit}  cell{atomic_unit}
       H  1.01366e-01  0.00000e+00  0.00000e+00
1
# CELL(abcABC):  566.91783   566.91783   566.91783    90.00000    90.00000    90.00000  Step:          26  Bead:       0 p_centroid{atomic_unit}  cell{atomic_unit}
       H  1.05420e-01  0.00000e+00  0.00000e+00
1
# CELL(abcABC):  566.91783   566.91783   566.91783    90.00000    90.00000    90.00000  Step:          27  Bead:       0 p_centroid{atomic_unit}  cell{atomic_unit}
       H  1.09708e-01  0.00000e+00  0.00000e+00
1
# CELL(abcABC):  566.91783   566.91783   566.91783    90.00000    90.00000    90.00000  Step:          28  Bead:       0 p_centroid{atomic_unit}  cell{atomic_unit}
       H  1.14239e-01  0.00000e+00  0.00000e+00
1
# CELL(abcABC):  566.91783   566.91783   566.91783    90.00000    90.00000    90.00000  Step:          29  Bead:       0 p_centroid{atomic_unit}  cell{atomic_unit}
       H  1.19023e-01  0.00000e+00  0.00000e+00
1
# CELL(abcABC):  566.91783   566.91783   566.91783    90.00000    90.00000    90.00000  Step:          30  Bead:       0 p_centroid{atomic_unit}  cell{atomic_unit}
       H  1.24071e-01  0.00000e+00  0.00000e+00
1
# CELL(abcABC):  566.91783   566.91783   566.91783    90.00000    90.00000    90.00000  Step:          31  Bead:       0 p_centroid{atomic_unit}  cell{atomic_unit}
       H  1.29394e-01  0.00000e+00  0.00000e+00
1
# CELL(abcABC):  566.91783   566.91783   566.91783    90.00000    90.00000    90.00000  Step:          32  Bead:       0 p_centroid{atomic_unit}  cell{atomic_unit}
       H  1.35004e-01  0.00000e+00  0.00000e+00
1
# CELL(abcABC):  566.91783   566.91783   566.91783    90.00000    90.00000    90.00000  Step:          33  Bead:       0 p_centroid{atomic_unit}  cell{atomic_unit}
       H  1.40912e-01  0.00000e+00  0.00000e+00
1
# CELL(abcABC):  566.91783   566.91783   566.91783    90.00000    90.00000    90.00000  Step:          34  Bead:       0 p_centroid{atomic_unit}  cell{atomic_unit}
       H  1.47133e-01  0.00000e+00  0.00000e+00
1
# CELL(abcABC):  566.91783   566.91783   566.91783    90.00000    90.00000    90.00000  Step:          35  Bead:       0 p_centroid{atomic_unit}  cell{atomic_unit}
       H  1.53679e-01  0.00000e+00  0.00000e+00
1
# CELL(abcABC):  566.91783   566.91783   566.91783    90.00000    90.00000    90.00000  Step:          36  Bead:       0 p_centroid{atomic_unit}  cell{atomic_unit}
       H  1.60566e-01  0.00000e+00  0.00000e+00
1
# CELL(abcABC):  566.91783   566.91783   566.91783    90.00000    90.00000    90.00000  Step:          37  Bead:       0 p_centroid{atomic_unit}  cell{atomic_unit}
       H  1.67808e-01  0.00000e+00  0.00000e+00
1
# CELL(abcABC):  566.91783   566.91783   566.91783    90.00000    90.00000    90.00000  Step:          38  Bead:       0 p_centroid{atomic_unit}  cell{atomic_unit}
       H  1.75421e-01  0.00000e+00  0.00000e+00
1
# CELL(abcABC):  566.91783   566.91783   566.91783    90.00000    90.00000    90.00000  Step:          39  Bead:       0 p_centroid{atomic_unit}  cell{atomic_unit}
       H  1.83421e-01  0.00000e+00  0.00000e+00
1
# CELL(abcABC):  566.91783   566.91783   566.91783    90.00000    90.00000    90.00000  Step:          40  Bead:       0 p_centroid{atomic_unit}  cell{atomic_unit}
       H  1.91826e-01  0.00000e+00  0.00000e+00
1
# CELL(abcABC):  566.91783   566.91783   566.91783    90.00000    90.00000    90.00000  Step:          41  Bead:       0 p_centroid{atomic_unit}  cell{atomic_unit}
       H  2.00656e-01  0.00000e+00  0.00000e+00
1
# CELL(abcABC):  566.91783   566.91783   566.91783    90.00000    90.00000    90.00000  Step:          42  Bead:       0 p_centroid{atomic_unit}  cell{atomic_unit}
       H  2.09929e-01  0.00000e+00  0.00000e+00
1
# CELL(abcABC):  566.91783   566.91783   566.91783    90.00000    90.00000    90.00000  Step:          43  Bead:       0 p_centroid{atomic_unit}  cell{atomic_unit}
       H  2.19666e-01  0.00000e+00  0.00000e+00
1
# CELL(abcABC):  566.91783   566.91783   566.91783    90.00000    90.00000    90.00000  Step:          44  Bead:       0 p_centroid{atomic_unit}  cell{atomic_unit}
       H  2.29890e-01  0.00000e+00  0.00000e+00
1
# CELL(abcABC):  566.91783   566.91783   566.91783    90.00000    90.00000    90.00000  Step:          45  Bead:       0 p_centroid{atomic_unit}  cell{atomic_unit}
       H  2.40621e-01  0.00000e+00  0.00000e+00
1
# CELL(abcABC):  566.91783   566.91783   566.91783    90.00000    90.00000    90.00000  Step:          46  Bead:       0 p_centroid{atomic_unit}  cell{atomic_unit}
       H  2.51884e-01  0.00000e+00  0.00000e+00
1
# CELL(abcABC):  566.91783   566.91783   566.91783    90.00000    90.00000    90.00000  Step:          47  Bead:       0 p_centroid{atomic_unit}  cell{atomic_unit}
       H  2.63702e-01  0.00000e+00  0.00000e+00
1
# CELL(abcABC):  566.91783   566.91783   566.91783    90.00000    90.00000    90.00000  Step:          48  Bead:       0 p_centroid{atomic_unit}  cell{atomic_unit}
       H  2.76101e-01  0.00000e+00  0.00000e+00
1
# CELL(abcABC):  566.91783   566.91783   566.91783    90.00000    90.00000    90.00000  Step:          49  Bead:       0 p_centroid{atomic_unit}  cell{atomic_unit}
       H  2.89107e-01  0.00000e+00  0.00000e+00
1
# CELL(abcABC):  566.91783   566.91783   566.91783    90.00000    90.00000    90.00000  Step:          50  Bead:       0 p_centroid{atomic_unit}  cell{atomic_unit}
       H  3.02750e-01  0.00000e+00  0.00000e+00
1
# CELL(abcABC):  566.91783   566.91783   566.91783    90.00000    90.00000    90.00000  Step:          51  Bead:       0 p_centroid{atomic_unit}  cell{atomic_unit}
       H  3.17059e-01  0.00000e+00  0.00000e+00
1
# CELL(abcABC):  566.91783   566.91783   566.91783    90.00000    90.00000    90.00000  Step:          52  Bead:       0 p_centroid{atomic_unit}  cell{atomic_unit}
       H  3.32067e-01  0.00000e+00  0.00000e+00
1
# CELL(abcABC):  566.91783   566.91783   566.91783    90.00000    90.00000    90.00000  Step:          53  Bead:       0 p_centroid{atomic_unit}  cell{atomic_unit}
       H  3.47805e-01  0.00000e+00  0.00000e+00
1
# CELL(abcABC):  566.91783   566.91783   566.91783    90.00000    90.00000    90.00000  Step:          54  Bead:       0 p_centroid{atomic_unit}  cell{atomic_unit}
       H  3.64307e-01  0.00000e+00  0.00000e+00
1
# CELL(abcABC):  566.91783   566.91783   566.91783    90.00000    90.00000    90.00000  Step:          55  Bead:       0 p_centroid{atomic_unit}  cell{atomic_unit}
       H  3.81608e-01  0.00000e+00  0.00000e+00
1
# CELL(abcABC):  566.91783   566.91783   566.91783    90.00000    90.00000    90.00000  Step:          56  Bead:       0 p_centroid{atomic_unit}  cell{atomic_unit}
       H  3.99745e-01  0.00000e+00  0.00000e+00
1
# CELL(abcABC):  566.91783   566.91783   566.91783    90.00000    90.00000    90.00000  Step:          57  Bead:       0 p_centroid{atomic_unit}  cell{atomic_unit}
       H  4.18758e-01  0.00000e+00  0.00000e+00
1
# CELL(abcABC):  566.91783   566.91783   566.91783    90.00000    90.00000    90.00000  Step:          58  Bead:       0 p_centroid{atomic_unit}  cell{atomic_unit}
       H  4.38689e-01  0.00000e+00  0.00000e+00
1
# CELL(abcABC):  566.91783   566.91783   566.91783    90.00000    90.00000    90.00000  Step:          59  Bead:       0 p_centroid{atomic_unit}  cell{atomic_unit}
       H  4.59583e-01  0.00000e+00  0.00000e+00
1
# CELL(abcABC):  566.91783   566.91783   566.91783    90.00000    90.00000    90.00000  Step:          60  Bead:       0 p_centroid{atomic_unit}  cell{atomic_unit}
       H  4.81486e-01  0.00000e+00  0.00000e+00
1
# CELL(abcABC):  566.91783   566.91783   566.91783    90.00000    90.00000    90.00000  Step:          61  Bead:       0 p_centroid{atomic_unit}  cell{atomic_unit}
       H  5.04443e-01  0.00000e+00  0.00000e+00
1
# CELL(abcABC):  566.91783   566.91783   566.91783    90.00000    90.00000    90.00000  Step:          62  Bead:       0 p_centroid{atomic_unit}  cell{atomic_unit}
       H  5.28506e-01  0.00000e+00  0.00000e+00
1
# CELL(abcABC):  566.91783   566.91783   566.91783    90.00000    90.00000    90.00000  Step:          63  Bead:       0 p_centroid{atomic_unit}  cell{atomic_unit}
       H  5.53723e-01  0.00000e+00  0.00000e+00
1
# CELL(abcABC):  566.91783   566.91783   566.91783    90.00000    90.00000    90.00000  Step:          64  Bead:       0 p_centroid{atomic_unit}  cell{atomic_unit}
       H  5.80148e-01  0.00000e+00  0.00000e+00
1
# CELL(abcABC):  566.91783   566.91783   566.91783    90.00000    90.00000    90.00000  Step:          65  Bead:       0 p_centroid{atomic_unit}  cell{atomic_unit}
       H  6.07837e-01  0.00000e+00  0.00000e+00
1
# CELL(abcABC):  566.91783   566.91783   566.91783    90.00000    90.00000    90.00000  Step:          66  Bead:       0 p_centroid{atomic_unit}  cell{atomic_unit}
       H  6.36849e-01  0.00000e+00  0.00000e+00
1
# CELL(abcABC):  566.91783   566.91783   566.91783    90.00000    90.00000    90.00000  Step:          67  Bead:       0 p_centroid{atomic_unit}  cell{atomic_unit}
       H  6.67244e-01  0.00000e+00  0.00000e+00
1
# CELL(abcABC):  566.91783   566.91783   566.91783    90.00000    90.00000    90.00000  Step:          68  Bead:       0 p_centroid{atomic_unit}  cell{atomic_unit}
       H  6.99087e-01  0.00000e+00  0.00000e+00
1
# CELL(abcABC):  566.91783   566.91783   566.91783    90.00000    90.00000    90.00000  Step:          69  Bead:       0 p_centroid{atomic_unit}  cell{atomic_unit}
       H  7.32443e-01  0.00000e+00  0.00000e+00
1
# CELL(abcABC):  566.91783   566.91783   566.91783    90.00000    90.00000    90.00000  Step:          70  Bead:       0 p_centroid{atomic_unit}  cell{atomic_unit}
       H  7.67381e-01  0.00000e+00  0.00000e+00
1
# CELL(abcABC):  566.91783   566.91783   566.91783    90.00000    90.00000    90.00000  Step:          71  Bead:       0 p_centroid{atomic_unit}  cell{atomic_unit}
       H  8.03973e-01  0.00000e+00  0.00000e+00
1
# CELL(abcABC):  566.91783   566.91783   566.91783    90.00000    90.00000    90.00000  Step:          72  Bead:       0 p_centroid{atomic_unit}  cell{atomic_unit}
       H  8.42293e-01  0.00000e+00  0.00000e+00
1
# CELL(abcABC):  566.91783   566.91783   566.91783    90.00000    90.00000    90.00000  Step:          73  Bead:       0 p_centroid{atomic_unit}  cell{atomic_unit}
       H  8.82421e-01  0.00000e+00  0.00000e+00
1
# CELL(abcABC):  566.91783   566.91783   566.91783    90.00000    90.00000    90.00000  Step:          74  Bead:       0 p_centroid{atomic_unit}  cell{atomic_unit}
       H  9.24439e-01  0.00000e+00  0.00000e+00
1
# CELL(abcABC):  566.91783   566.91783   566.91783    90.00000    90.00000    90.00000  Step:          75  Bead:       0 p_centroid{atomic_unit}  cell{atomic_unit}
       H  9.68432e-01  0.00000e+00  0.00000e+00
1
# CELL(abcABC):  566.91783   566.91783   566.91783    90.00000    90.00000    90.00000  Step:          76  Bead:       0 p_centroid{atomic_unit}  cell{atomic_unit}
       H  1.01448e+00  0.00000e+00  0.00000e+00
1
# CELL(abcABC):  566.91783   566.91783   566.91783    90.00000    90.00000    90.00000  Step:          77  Bead:       0 p_centroid{atomic_unit}  cell{atomic_unit}
       H  1.06268e+00  0.00000e+00  0.00000e+00
1
# CELL(abcABC):  566.91783   566.91783   566.91783    90.00000    90.00000    90.00000  Step:          78  Bead:       0 p_centroid{atomic_unit}  cell{atomic_unit}
       H  1.11312e+00  0.00000e+00  0.00000e+00
1
# CELL(abcABC):  566.91783   566.91783   566.91783    90.00000    90.00000    90.00000  Step:          79  Bead:       0 p_centroid{atomic_unit}  cell{atomic_unit}
       H  1.16590e+00  0.00000e+00  0.00000e+00
1
# CELL(abcABC):  566.91783   566.91783   566.91783    90.00000    90.00000    90.00000  Step:          80  Bead:       0 p_centroid{atomic_unit}  cell{atomic_unit}
       H  1.22110e+00  0.00000e+00  0.00000e+00
1
# CELL(abcABC):  566.91783   566.91783   566.91783    90.00000    90.00000    90.00000  Step:          81  Bead:       0 p_centroid{atomic_unit}  cell{atomic_unit}
       H  1.27884e+00  0.00000e+00  0.00000e+00
1
# CELL(abcABC):  566.91783   566.91783   566.91783    90.00000    90.00000    90.00000  Step:          82  Bead:       0 p_centroid{atomic_unit}  cell{atomic_unit}
       H  1.33921e+00  0.00000e+00  0.00000e+00
1
# CELL(abcABC):  566.91783   566.91783   566.91783    90.00000    90.00000    90.00000  Step:          83  Bead:       0 p_centroid{atomic_unit}  cell{atomic_unit}
       H  1.40232e+00  0.00000e+00  0.00000e+00
1
# CELL(abcABC):  566.91783   566.91783   566.91783    90.00000    90.00000    90.00000  Step:          84  Bead:       0 p_centroid{atomic_unit}  cell{atomic_unit}
       H  1.46826e+00  0.00000e+00  0.00000e+00
1
# CELL(abcABC):  566.91783   566.91783   566.91783    90.00000    90.00000    90.00000  Step:          85  Bead:       0 p_centroid{atomic_unit}  cell{atomic_unit}
       H  1.53714e+00  0.00000e+00  0.00000e+00
1
# CELL(abcABC):  566.91783   566.91783   566.91783    90.00000    90.00000    90.00000  Step:          86  Bead:       0 p_centroid{atomic_unit}  cell{atomic_unit}
       H  1.60906e+00  0.00000e+00  0.00000e+00
1
# CELL(abcABC):  566.91783   566.91783   566.91783    90.00000    90.00000    90.00000  Step:          87  Bead:       0 p_centroid{atomic_unit}  cell{atomic_unit}
       H  1.68413e+00  0.00000e+00  0.00000e+00
1
# CELL(abcABC):  566.91783   566.91783   566.91783    90.00000    90.00000    90.00000  Step:          88  Bead:       0 p_centroid{atomic_unit}  cell{atomic_unit}
       H  1.76245e+00  0.00000e+00  0.00000e+00
1
# CELL(abcABC):  566.91783   566.91783   566.91783    90.00000    90.00000    90.00000  Step:          89  Bead:       0 p_centroid{atomic_unit}  cell{atomic_unit}
       H  1.84413e+00  0.00000e+00  0.00000e+00
1
# CELL(abcABC):  566.91783   566.91783   566.91783    90.00000    90.00000    90.00000  Step:          90  Bead:       0 p_centroid{atomic_unit}  cell{atomic_unit}
       H  1.92927e+00  0.00000e+00  0.00000e+00
1
# CELL(abcABC):  566.91783   566.91783   566.91783    90.00000    90.00000    90.00000  Step:          91  Bead:       0 p_centroid{atomic_unit}  cell{atomic_unit}
       H  2.01798e+00  0.00000e+00  0.00000e+00
1
# CELL(abcABC):  566.91783   566.91783   566.91783    90.00000    90.00000    90.00000  Step:          92  Bead:       0 p_centroid{atomic_unit}  cell{atomic_unit}
       H  2.11034e+00  0.00000e+00  0.00000e+00
1
# CELL(abcABC):  566.91783   566.91783   566.91783    90.00000    90.00000    90.00000  Step:          93  Bead:       0 p_centroid{atomic_unit}  cell{atomic_unit}
       H  2.20645e+00  0.00000e+00  0.00000e+00
1
# CELL(abcABC):  566.91783   566.91783   566.91783    90.00000    90.00000    90.00000  Step:          94  Bead:       0 p_centroid{atomic_unit}  cell{atomic_unit}
       H  2.30638e+00  0.00000e+00  0.00000e+00
1
# CELL(abcABC):  566.91783   566.91783   566.91783    90.00000    90.00000    90.00000  Step:          95  Bead:       0 p_centroid{atomic_unit}  cell{atomic_unit}
       H  2.41020e+00  0.00000e+00  0.00000e+00
1
# CELL(abcABC):  566.91783   566.91783   566.91783    90.00000    90.00000    90.00000  Step:          96  Bead:       0 p_centroid{atomic_unit}  cell{atomic_unit}
       H  2.51795e+00  0.00000e+00  0.00000e+00
1
# CELL(abcABC):  566.91783   566.91783   566.91783    90.00000    90.00000    90.00000  Step:          97  Bead:       0 p_centroid{atomic_unit}  cell{atomic_unit}
       H  2.62968e+00  0.00000e+00  0.00000e+00
1
# CELL(abcABC):  566.91783   566.91783   566.91783    90.00000    90.00000    90.00000  Step:          98  Bead:       0 p_centroid{atomic_unit}  cell{atomic_unit}
       H  2.74538e+00  0.00000e+00  0.00000e+00
1
# CELL(abcABC):  566.91783   566.91783   566.91783    90.00000    90.00000    90.00000  Step:          99  Bead:       0 p_centroid{atomic_unit}  cell{atomic_unit}
       H  2.86505e+00  0.00000e+00  0.00000e+00
1
# CELL(abcABC):  566.91783   566.91783   566.91783    90.00000    90.00000    90.00000  Step:         100  Bead:       0 p_centroid{atomic_unit}  cell{atomic_unit}
       H  2.98864e+00  0.00000e+00  0.00000e+00
