1
# CELL(abcABC):  300.00000   300.00000   300.00000    90.00000    90.00000    90.00000  Step:           0  Bead:       0 p_centroid{atomic_unit}  cell{atomic_unit}
       H -2.03254e+00  0.00000e+00  0.00000e+00
1
# CELL(abcABC):  300.00000   300.00000   300.00000    90.00000    90.00000    90.00000  Step:           1  Bead:       0 p_centroid{atomic_unit}  cell{atomic_unit}
       H -1.95505e+00  0.00000e+00  0.00000e+00
1
# CELL(abcABC):  300.00000   300.00000   300.00000    90.00000    90.00000    90.00000  Step:           2  Bead:       0 p_centroid{atomic_unit}  cell{atomic_unit}
       H -1.86664e+00  0.00000e+00  0.00000e+00
1
# CELL(abcABC):  300.00000   300.00000   300.00000    90.00000    90.00000    90.00000  Step:           3  Bead:       0 p_centroid{atomic_unit}  cell{atomic_unit}
       H -1.76804e+00  0.00000e+00  0.00000e+00
1
# CELL(abcABC):  300.00000   300.00000   300.00000    90.00000    90.00000    90.00000  Step:           4  Bead:       0 p_centroid{atomic_unit}  cell{atomic_unit}
       H -1.66018e+00  0.00000e+00  0.00000e+00
1
# CELL(abcABC):  300.00000   300.00000   300.00000    90.00000    90.00000    90.00000  Step:           5  Bead:       0 p_centroid{atomic_unit}  cell{atomic_unit}
       H -1.54392e+00  0.00000e+00  0.00000e+00
1
# CELL(abcABC):  300.00000   300.00000   300.00000    90.00000    90.00000    90.00000  Step:           6  Bead:       0 p_centroid{atomic_unit}  cell{atomic_unit}
       H -1.41985e+00  0.00000e+00  0.00000e+00
1
# CELL(abcABC):  300.00000   300.00000   300.00000    90.00000    90.00000    90.00000  Step:           7  Bead:       0 p_centroid{atomic_unit}  cell{atomic_unit}
       H -1.28832e+00  0.00000e+00  0.00000e+00
1
# CELL(abcABC):  300.00000   300.00000   300.00000    90.00000    90.00000    90.00000  Step:           8  Bead:       0 p_centroid{atomic_unit}  cell{atomic_unit}
       H -1.14972e+00  0.00000e+00  0.00000e+00
1
# CELL(abcABC):  300.00000   300.00000   300.00000    90.00000    90.00000    90.00000  Step:           9  Bead:       0 p_centroid{atomic_unit}  cell{atomic_unit}
       H -1.00485e+00  0.00000e+00  0.00000e+00
1
# CELL(abcABC):  300.00000   300.00000   300.00000    90.00000    90.00000    90.00000  Step:          10  Bead:       0 p_centroid{atomic_unit}  cell{atomic_unit}
       H -8.55006e-01  0.00000e+00  0.00000e+00
1
# CELL(abcABC):  300.00000   300.00000   300.00000    90.00000    90.00000    90.00000  Step:          11  Bead:       0 p_centroid{atomic_unit}  cell{atomic_unit}
       H -7.01802e-01  0.00000e+00  0.00000e+00
1
# CELL(abcABC):  300.00000   300.00000   300.00000    90.00000    90.00000    90.00000  Step:          12  Bead:       0 p_centroid{atomic_unit}  cell{atomic_unit}
       H -5.46579e-01  0.00000e+00  0.00000e+00
1
# CELL(abcABC):  300.00000   300.00000   300.00000    90.00000    90.00000    90.00000  Step:          13  Bead:       0 p_centroid{atomic_unit}  cell{atomic_unit}
       H -3.89915e-01  0.00000e+00  0.00000e+00
1
# CELL(abcABC):  300.00000   300.00000   300.00000    90.00000    90.00000    90.00000  Step:          14  Bead:       0 p_centroid{atomic_unit}  cell{atomic_unit}
       H -2.31517e-01  0.00000e+00  0.00000e+00
1
# CELL(abcABC):  300.00000   300.00000   300.00000    90.00000    90.00000    90.00000  Step:          15  Bead:       0 p_centroid{atomic_unit}  cell{atomic_unit}
       H -7.06743e-02  0.00000e+00  0.00000e+00
1
# CELL(abcABC):  300.00000   300.00000   300.00000    90.00000    90.00000    90.00000  Step:          16  Bead:       0 p_centroid{atomic_unit}  cell{atomic_unit}
       H  9.29852e-02  0.00000e+00  0.00000e+00
1
# CELL(abcABC):  300.00000   300.00000   300.00000    90.00000    90.00000    90.00000  Step:          17  Bead:       0 p_centroid{atomic_unit}  cell{atomic_unit}
       H  2.58880e-01  0.00000e+00  0.00000e+00
1
# CELL(abcABC):  300.00000   300.00000   300.00000    90.00000    90.00000    90.00000  Step:          18  Bead:       0 p_centroid{atomic_unit}  cell{atomic_unit}
       H  4.25400e-01  0.00000e+00  0.00000e+00
1
# CELL(abcABC):  300.00000   300.00000   300.00000    90.00000    90.00000    90.00000  Step:          19  Bead:       0 p_centroid{atomic_unit}  cell{atomic_unit}
       H  5.90413e-01  0.00000e+00  0.00000e+00
1
# CELL(abcABC):  300.00000   300.00000   300.00000    90.00000    90.00000    90.00000  Step:          20  Bead:       0 p_centroid{atomic_unit}  cell{atomic_unit}
       H  7.52018e-01  0.00000e+00  0.00000e+00
1
# CELL(abcABC):  300.00000   300.00000   300.00000    90.00000    90.00000    90.00000  Step:          21  Bead:       0 p_centroid{atomic_unit}  cell{atomic_unit}
       H  9.09077e-01  0.00000e+00  0.00000e+00
1
# CELL(abcABC):  300.00000   300.00000   300.00000    90.00000    90.00000    90.00000  Step:          22  Bead:       0 p_centroid{atomic_unit}  cell{atomic_unit}
       H  1.06120e+00  0.00000e+00  0.00000e+00
1
# CELL(abcABC):  300.00000   300.00000   300.00000    90.00000    90.00000    90.00000  Step:          23  Bead:       0 p_centroid{atomic_unit}  cell{atomic_unit}
       H  1.20825e+00  0.00000e+00  0.00000e+00
1
# CELL(abcABC):  300.00000   300.00000   300.00000    90.00000    90.00000    90.00000  Step:          24  Bead:       0 p_centroid{atomic_unit}  cell{atomic_unit}
       H  1.34968e+00  0.00000e+00  0.00000e+00
1
# CELL(abcABC):  300.00000   300.00000   300.00000    90.00000    90.00000    90.00000  Step:          25  Bead:       0 p_centroid{atomic_unit}  cell{atomic_unit}
       H  1.48416e+00  0.00000e+00  0.00000e+00
1
# CELL(abcABC):  300.00000   300.00000   300.00000    90.00000    90.00000    90.00000  Step:          26  Bead:       0 p_centroid{atomic_unit}  cell{atomic_unit}
       H  1.60971e+00  0.00000e+00  0.00000e+00
1
# CELL(abcABC):  300.00000   300.00000   300.00000    90.00000    90.00000    90.00000  Step:          27  Bead:       0 p_centroid{atomic_unit}  cell{atomic_unit}
       H  1.72422e+00  0.00000e+00  0.00000e+00
1
# CELL(abcABC):  300.00000   300.00000   300.00000    90.00000    90.00000    90.00000  Step:          28  Bead:       0 p_centroid{atomic_unit}  cell{atomic_unit}
       H  1.82615e+00  0.00000e+00  0.00000e+00
1
# CELL(abcABC):  300.00000   300.00000   300.00000    90.00000    90.00000    90.00000  Step:          29  Bead:       0 p_centroid{atomic_unit}  cell{atomic_unit}
       H  1.91501e+00  0.00000e+00  0.00000e+00
1
# CELL(abcABC):  300.00000   300.00000   300.00000    90.00000    90.00000    90.00000  Step:          30  Bead:       0 p_centroid{atomic_unit}  cell{atomic_unit}
       H  1.99133e+00  0.00000e+00  0.00000e+00
1
# CELL(abcABC):  300.00000   300.00000   300.00000    90.00000    90.00000    90.00000  Step:          31  Bead:       0 p_centroid{atomic_unit}  cell{atomic_unit}
       H  2.05627e+00  0.00000e+00  0.00000e+00
1
# CELL(abcABC):  300.00000   300.00000   300.00000    90.00000    90.00000    90.00000  Step:          32  Bead:       0 p_centroid{atomic_unit}  cell{atomic_unit}
       H  2.11100e+00  0.00000e+00  0.00000e+00
1
# CELL(abcABC):  300.00000   300.00000   300.00000    90.00000    90.00000    90.00000  Step:          33  Bead:       0 p_centroid{atomic_unit}  cell{atomic_unit}
       H  2.15626e+00  0.00000e+00  0.00000e+00
1
# CELL(abcABC):  300.00000   300.00000   300.00000    90.00000    90.00000    90.00000  Step:          34  Bead:       0 p_centroid{atomic_unit}  cell{atomic_unit}
       H  2.19220e+00  0.00000e+00  0.00000e+00
1
# CELL(abcABC):  300.00000   300.00000   300.00000    90.00000    90.00000    90.00000  Step:          35  Bead:       0 p_centroid{atomic_unit}  cell{atomic_unit}
       H  2.21864e+00  0.00000e+00  0.00000e+00
1
# CELL(abcABC):  300.00000   300.00000   300.00000    90.00000    90.00000    90.00000  Step:          36  Bead:       0 p_centroid{atomic_unit}  cell{atomic_unit}
       H  2.23549e+00  0.00000e+00  0.00000e+00
1
# CELL(abcABC):  300.00000   300.00000   300.00000    90.00000    90.00000    90.00000  Step:          37  Bead:       0 p_centroid{atomic_unit}  cell{atomic_unit}
       H  2.24298e+00  0.00000e+00  0.00000e+00
1
# CELL(abcABC):  300.00000   300.00000   300.00000    90.00000    90.00000    90.00000  Step:          38  Bead:       0 p_centroid{atomic_unit}  cell{atomic_unit}
       H  2.24165e+00  0.00000e+00  0.00000e+00
1
# CELL(abcABC):  300.00000   300.00000   300.00000    90.00000    90.00000    90.00000  Step:          39  Bead:       0 p_centroid{atomic_unit}  cell{atomic_unit}
       H  2.23208e+00  0.00000e+00  0.00000e+00
1
# CELL(abcABC):  300.00000   300.00000   300.00000    90.00000    90.00000    90.00000  Step:          40  Bead:       0 p_centroid{atomic_unit}  cell{atomic_unit}
       H  2.21463e+00  0.00000e+00  0.00000e+00
1
# CELL(abcABC):  300.00000   300.00000   300.00000    90.00000    90.00000    90.00000  Step:          41  Bead:       0 p_centroid{atomic_unit}  cell{atomic_unit}
       H  2.18930e+00  0.00000e+00  0.00000e+00
1
# CELL(abcABC):  300.00000   300.00000   300.00000    90.00000    90.00000    90.00000  Step:          42  Bead:       0 p_centroid{atomic_unit}  cell{atomic_unit}
       H  2.15587e+00  0.00000e+00  0.00000e+00
1
# CELL(abcABC):  300.00000   300.00000   300.00000    90.00000    90.00000    90.00000  Step:          43  Bead:       0 p_centroid{atomic_unit}  cell{atomic_unit}
       H  2.11421e+00  0.00000e+00  0.00000e+00
1
# CELL(abcABC):  300.00000   300.00000   300.00000    90.00000    90.00000    90.00000  Step:          44  Bead:       0 p_centroid{atomic_unit}  cell{atomic_unit}
       H  2.06446e+00  0.00000e+00  0.00000e+00
1
# CELL(abcABC):  300.00000   300.00000   300.00000    90.00000    90.00000    90.00000  Step:          45  Bead:       0 p_centroid{atomic_unit}  cell{atomic_unit}
       H  2.00712e+00  0.00000e+00  0.00000e+00
1
# CELL(abcABC):  300.00000   300.00000   300.00000    90.00000    90.00000    90.00000  Step:          46  Bead:       0 p_centroid{atomic_unit}  cell{atomic_unit}
       H  1.94292e+00  0.00000e+00  0.00000e+00
1
# CELL(abcABC):  300.00000   300.00000   300.00000    90.00000    90.00000    90.00000  Step:          47  Bead:       0 p_centroid{atomic_unit}  cell{atomic_unit}
       H  1.87258e+00  0.00000e+00  0.00000e+00
1
# CELL(abcABC):  300.00000   300.00000   300.00000    90.00000    90.00000    90.00000  Step:          48  Bead:       0 p_centroid{atomic_unit}  cell{atomic_unit}
       H  1.79666e+00  0.00000e+00  0.00000e+00
1
# CELL(abcABC):  300.00000   300.00000   300.00000    90.00000    90.00000    90.00000  Step:          49  Bead:       0 p_centroid{atomic_unit}  cell{atomic_unit}
       H  1.71553e+00  0.00000e+00  0.00000e+00
1
# CELL(abcABC):  300.00000   300.00000   300.00000    90.00000    90.00000    90.00000  Step:          50  Bead:       0 p_centroid{atomic_unit}  cell{atomic_unit}
       H  1.62947e+00  0.00000e+00  0.00000e+00
1
# CELL(abcABC):  300.00000   300.00000   300.00000    90.00000    90.00000    90.00000  Step:          51  Bead:       0 p_centroid{atomic_unit}  cell{atomic_unit}
       H  1.53876e+00  0.00000e+00  0.00000e+00
1
# CELL(abcABC):  300.00000   300.00000   300.00000    90.00000    90.00000    90.00000  Step:          52  Bead:       0 p_centroid{atomic_unit}  cell{atomic_unit}
       H  1.44384e+00  0.00000e+00  0.00000e+00
1
# CELL(abcABC):  300.00000   300.00000   300.00000    90.00000    90.00000    90.00000  Step:          53  Bead:       0 p_centroid{atomic_unit}  cell{atomic_unit}
       H  1.34525e+00  0.00000e+00  0.00000e+00
1
# CELL(abcABC):  300.00000   300.00000   300.00000    90.00000    90.00000    90.00000  Step:          54  Bead:       0 p_centroid{atomic_unit}  cell{atomic_unit}
       H  1.24360e+00  0.00000e+00  0.00000e+00
1
# CELL(abcABC):  300.00000   300.00000   300.00000    90.00000    90.00000    90.00000  Step:          55  Bead:       0 p_centroid{atomic_unit}  cell{atomic_unit}
       H  1.13946e+00  0.00000e+00  0.00000e+00
1
# CELL(abcABC):  300.00000   300.00000   300.00000    90.00000    90.00000    90.00000  Step:          56  Bead:       0 p_centroid{atomic_unit}  cell{atomic_unit}
       H  1.03333e+00  0.00000e+00  0.00000e+00
1
# CELL(abcABC):  300.00000   300.00000   300.00000    90.00000    90.00000    90.00000  Step:          57  Bead:       0 p_centroid{atomic_unit}  cell{atomic_unit}
       H  9.25633e-01  0.00000e+00  0.00000e+00
1
# CELL(abcABC):  300.00000   300.00000   300.00000    90.00000    90.00000    90.00000  Step:          58  Bead:       0 p_centroid{atomic_unit}  cell{atomic_unit}
       H  8.16739e-01  0.00000e+00  0.00000e+00
1
# CELL(abcABC):  300.00000   300.00000   300.00000    90.00000    90.00000    90.00000  Step:          59  Bead:       0 p_centroid{atomic_unit}  cell{atomic_unit}
       H  7.07030e-01  0.00000e+00  0.00000e+00
1
# CELL(abcABC):  300.00000   300.00000   300.00000    90.00000    90.00000    90.00000  Step:          60  Bead:       0 p_centroid{atomic_unit}  cell{atomic_unit}
       H  5.96892e-01  0.00000e+00  0.00000e+00
1
# CELL(abcABC):  300.00000   300.00000   300.00000    90.00000    90.00000    90.00000  Step:          61  Bead:       0 p_centroid{atomic_unit}  cell{atomic_unit}
       H  4.86678e-01  0.00000e+00  0.00000e+00
1
# CELL(abcABC):  300.00000   300.00000   300.00000    90.00000    90.00000    90.00000  Step:          62  Bead:       0 p_centroid{atomic_unit}  cell{atomic_unit}
       H  3.76653e-01  0.00000e+00  0.00000e+00
1
# CELL(abcABC):  300.00000   300.00000   300.00000    90.00000    90.00000    90.00000  Step:          63  Bead:       0 p_centroid{atomic_unit}  cell{atomic_unit}
       H  2.66986e-01  0.00000e+00  0.00000e+00
1
# CELL(abcABC):  300.00000   300.00000   300.00000    90.00000    90.00000    90.00000  Step:          64  Bead:       0 p_centroid{atomic_unit}  cell{atomic_unit}
       H  1.57800e-01  0.00000e+00  0.00000e+00
1
# CELL(abcABC):  300.00000   300.00000   300.00000    90.00000    90.00000    90.00000  Step:          65  Bead:       0 p_centroid{atomic_unit}  cell{atomic_unit}
       H  4.92428e-02  0.00000e+00  0.00000e+00
1
# CELL(abcABC):  300.00000   300.00000   300.00000    90.00000    90.00000    90.00000  Step:          66  Bead:       0 p_centroid{atomic_unit}  cell{atomic_unit}
       H -5.84769e-02  0.00000e+00  0.00000e+00
1
# CELL(abcABC):  300.00000   300.00000   300.00000    90.00000    90.00000    90.00000  Step:          67  Bead:       0 p_centroid{atomic_unit}  cell{atomic_unit}
       H -1.65152e-01  0.00000e+00  0.00000e+00
1
# CELL(abcABC):  300.00000   300.00000   300.00000    90.00000    90.00000    90.00000  Step:          68  Bead:       0 p_centroid{atomic_unit}  cell{atomic_unit}
       H -2.70695e-01  0.00000e+00  0.00000e+00
1
# CELL(abcABC):  300.00000   300.00000   300.00000    90.00000    90.00000    90.00000  Step:          69  Bead:       0 p_centroid{atomic_unit}  cell{atomic_unit}
       H -3.75225e-01  0.00000e+00  0.00000e+00
1
# CELL(abcABC):  300.00000   300.00000   300.00000    90.00000    90.00000    90.00000  Step:          70  Bead:       0 p_centroid{atomic_unit}  cell{atomic_unit}
       H -4.79045e-01  0.00000e+00  0.00000e+00
1
# CELL(abcABC):  300.00000   300.00000   300.00000    90.00000    90.00000    90.00000  Step:          71  Bead:       0 p_centroid{atomic_unit}  cell{atomic_unit}
       H -5.82483e-01  0.00000e+00  0.00000e+00
1
# CELL(abcABC):  300.00000   300.00000   300.00000    90.00000    90.00000    90.00000  Step:          72  Bead:       0 p_centroid{atomic_unit}  cell{atomic_unit}
       H -6.85684e-01  0.00000e+00  0.00000e+00
1
# CELL(abcABC):  300.00000   300.00000   300.00000    90.00000    90.00000    90.00000  Step:          73  Bead:       0 p_centroid{atomic_unit}  cell{atomic_unit}
       H -7.88487e-01  0.00000e+00  0.00000e+00
1
# CELL(abcABC):  300.00000   300.00000   300.00000    90.00000    90.00000    90.00000  Step:          74  Bead:       0 p_centroid{atomic_unit}  cell{atomic_unit}
       H -8.90479e-01  0.00000e+00  0.00000e+00
1
# CELL(abcABC):  300.00000   300.00000   300.00000    90.00000    90.00000    90.00000  Step:          75  Bead:       0 p_centroid{atomic_unit}  cell{atomic_unit}
       H -9.91199e-01  0.00000e+00  0.00000e+00
1
# CELL(abcABC):  300.00000   300.00000   300.00000    90.00000    90.00000    90.00000  Step:          76  Bead:       0 p_centroid{atomic_unit}  cell{atomic_unit}
       H -1.09036e+00  0.00000e+00  0.00000e+00
1
# CELL(abcABC):  300.00000   300.00000   300.00000    90.00000    90.00000    90.00000  Step:          77  Bead:       0 p_centroid{atomic_unit}  cell{atomic_unit}
       H -1.18791e+00  0.00000e+00  0.00000e+00
1
# CELL(abcABC):  300.00000   300.00000   300.00000    90.00000    90.00000    90.00000  Step:          78  Bead:       0 p_centroid{atomic_unit}  cell{atomic_unit}
       H -1.28393e+00  0.00000e+00  0.00000e+00
1
# CELL(abcABC):  300.00000   300.00000   300.00000    90.00000    90.00000    90.00000  Step:          79  Bead:       0 p_centroid{atomic_unit}  cell{atomic_unit}
       H -1.37829e+00  0.00000e+00  0.00000e+00
1
# CELL(abcABC):  300.00000   300.00000   300.00000    90.00000    90.00000    90.00000  Step:          80  Bead:       0 p_centroid{atomic_unit}  cell{atomic_unit}
       H -1.47042e+00  0.00000e+00  0.00000e+00
1
# CELL(abcABC):  300.00000   300.00000   300.00000    90.00000    90.00000    90.00000  Step:          81  Bead:       0 p_centroid{atomic_unit}  cell{atomic_unit}
       H -1.55933e+00  0.00000e+00  0.00000e+00
1
# CELL(abcABC):  300.00000   300.00000   300.00000    90.00000    90.00000    90.00000  Step:          82  Bead:       0 p_centroid{atomic_unit}  cell{atomic_unit}
       H -1.64381e+00  0.00000e+00  0.00000e+00
1
# CELL(abcABC):  300.00000   300.00000   300.00000    90.00000    90.00000    90.00000  Step:          83  Bead:       0 p_centroid{atomic_unit}  cell{atomic_unit}
       H -1.72290e+00  0.00000e+00  0.00000e+00
1
# CELL(abcABC):  300.00000   300.00000   300.00000    90.00000    90.00000    90.00000  Step:          84  Bead:       0 p_centroid{atomic_unit}  cell{atomic_unit}
       H -1.79623e+00  0.00000e+00  0.00000e+00
1
# CELL(abcABC):  300.00000   300.00000   300.00000    90.00000    90.00000    90.00000  Step:          85  Bead:       0 p_centroid{atomic_unit}  cell{atomic_unit}
       H -1.86405e+00  0.00000e+00  0.00000e+00
1
# CELL(abcABC):  300.00000   300.00000   300.00000    90.00000    90.00000    90.00000  Step:          86  Bead:       0 p_centroid{atomic_unit}  cell{atomic_unit}
       H -1.92688e+00  0.00000e+00  0.00000e+00
1
# CELL(abcABC):  300.00000   300.00000   300.00000    90.00000    90.00000    90.00000  Step:          87  Bead:       0 p_centroid{atomic_unit}  cell{atomic_unit}
       H -1.98507e+00  0.00000e+00  0.00000e+00
1
# CELL(abcABC):  300.00000   300.00000   300.00000    90.00000    90.00000    90.00000  Step:          88  Bead:       0 p_centroid{atomic_unit}  cell{atomic_unit}
       H -2.03840e+00  0.00000e+00  0.00000e+00
1
# CELL(abcABC):  300.00000   300.00000   300.00000    90.00000    90.00000    90.00000  Step:          89  Bead:       0 p_centroid{atomic_unit}  cell{atomic_unit}
       H -2.08604e+00  0.00000e+00  0.00000e+00
1
# CELL(abcABC):  300.00000   300.00000   300.00000    90.00000    90.00000    90.00000  Step:          90  Bead:       0 p_centroid{atomic_unit}  cell{atomic_unit}
       H -2.12686e+00  0.00000e+00  0.00000e+00
1
# CELL(abcABC):  300.00000   300.00000   300.00000    90.00000    90.00000    90.00000  Step:          91  Bead:       0 p_centroid{atomic_unit}  cell{atomic_unit}
       H -2.15986e+00  0.00000e+00  0.00000e+00
1
# CELL(abcABC):  300.00000   300.00000   300.00000    90.00000    90.00000    90.00000  Step:          92  Bead:       0 p_centroid{atomic_unit}  cell{atomic_unit}
       H -2.18454e+00  0.00000e+00  0.00000e+00
1
# CELL(abcABC):  300.00000   300.00000   300.00000    90.00000    90.00000    90.00000  Step:          93  Bead:       0 p_centroid{atomic_unit}  cell{atomic_unit}
       H -2.20091e+00  0.00000e+00  0.00000e+00
1
# CELL(abcABC):  300.00000   300.00000   300.00000    90.00000    90.00000    90.00000  Step:          94  Bead:       0 p_centroid{atomic_unit}  cell{atomic_unit}
       H -2.20927e+00  0.00000e+00  0.00000e+00
1
# CELL(abcABC):  300.00000   300.00000   300.00000    90.00000    90.00000    90.00000  Step:          95  Bead:       0 p_centroid{atomic_unit}  cell{atomic_unit}
       H -2.20979e+00  0.00000e+00  0.00000e+00
1
# CELL(abcABC):  300.00000   300.00000   300.00000    90.00000    90.00000    90.00000  Step:          96  Bead:       0 p_centroid{atomic_unit}  cell{atomic_unit}
       H -2.20229e+00  0.00000e+00  0.00000e+00
1
# CELL(abcABC):  300.00000   300.00000   300.00000    90.00000    90.00000    90.00000  Step:          97  Bead:       0 p_centroid{atomic_unit}  cell{atomic_unit}
       H -2.18620e+00  0.00000e+00  0.00000e+00
1
# CELL(abcABC):  300.00000   300.00000   300.00000    90.00000    90.00000    90.00000  Step:          98  Bead:       0 p_centroid{atomic_unit}  cell{atomic_unit}
       H -2.16079e+00  0.00000e+00  0.00000e+00
1
# CELL(abcABC):  300.00000   300.00000   300.00000    90.00000    90.00000    90.00000  Step:          99  Bead:       0 p_centroid{atomic_unit}  cell{atomic_unit}
       H -2.12546e+00  0.00000e+00  0.00000e+00
1
# CELL(abcABC):  300.00000   300.00000   300.00000    90.00000    90.00000    90.00000  Step:         100  Bead:       0 p_centroid{atomic_unit}  cell{atomic_unit}
       H -2.07989e+00  0.00000e+00  0.00000e+00
