1
# CELL(abcABC):  300.00000   300.00000   300.00000    90.00000    90.00000    90.00000  Step:           0  Bead:       0 x_centroid{atomic_unit}  cell{atomic_unit}
       H -2.10476e+00  0.00000e+00  0.00000e+00
1
# CELL(abcABC):  300.00000   300.00000   300.00000    90.00000    90.00000    90.00000  Step:           1  Bead:       0 x_centroid{atomic_unit}  cell{atomic_unit}
       H -2.12722e+00  0.00000e+00  0.00000e+00
1
# CELL(abcABC):  300.00000   300.00000   300.00000    90.00000    90.00000    90.00000  Step:           2  Bead:       0 x_centroid{atomic_unit}  cell{atomic_unit}
       H -2.14875e+00  0.00000e+00  0.00000e+00
1
# CELL(abcABC):  300.00000   300.00000   300.00000    90.00000    90.00000    90.00000  Step:           3  Bead:       0 x_centroid{atomic_unit}  cell{atomic_unit}
       H -2.16922e+00  0.00000e+00  0.00000e+00
1
# CELL(abcABC):  300.00000   300.00000   300.00000    90.00000    90.00000    90.00000  Step:           4  Bead:       0 x_centroid{atomic_unit}  cell{atomic_unit}
       H -2.18853e+00  0.00000e+00  0.00000e+00
1
# CELL(abcABC):  300.00000   300.00000   300.00000    90.00000    90.00000    90.00000  Step:           5  Bead:       0 x_centroid{atomic_unit}  cell{atomic_unit}
       H -2.20658e+00  0.00000e+00  0.00000e+00
1
# CELL(abcABC):  300.00000   300.00000   300.00000    90.00000    90.00000    90.00000  Step:           6  Bead:       0 x_centroid{atomic_unit}  cell{atomic_unit}
       H -2.22327e+00  0.00000e+00  0.00000e+00
1
# CELL(abcABC):  300.00000   300.00000   300.00000    90.00000    90.00000    90.00000  Step:           7  Bead:       0 x_centroid{atomic_unit}  cell{atomic_unit}
       H -2.23852e+00  0.00000e+00  0.00000e+00
1
# CELL(abcABC):  300.00000   300.00000   300.00000    90.00000    90.00000    90.00000  Step:           8  Bead:       0 x_centroid{atomic_unit}  cell{atomic_unit}
       H -2.25226e+00  0.00000e+00  0.00000e+00
1
# CELL(abcABC):  300.00000   300.00000   300.00000    90.00000    90.00000    90.00000  Step:           9  Bead:       0 x_centroid{atomic_unit}  cell{atomic_unit}
       H -2.26439e+00  0.00000e+00  0.00000e+00
1
# CELL(abcABC):  300.00000   300.00000   300.00000    90.00000    90.00000    90.00000  Step:          10  Bead:       0 x_centroid{atomic_unit}  cell{atomic_unit}
       H -2.27487e+00  0.00000e+00  0.00000e+00
1
# CELL(abcABC):  300.00000   300.00000   300.00000    90.00000    90.00000    90.00000  Step:          11  Bead:       0 x_centroid{atomic_unit}  cell{atomic_unit}
       H -2.28363e+00  0.00000e+00  0.00000e+00
1
# CELL(abcABC):  300.00000   300.00000   300.00000    90.00000    90.00000    90.00000  Step:          12  Bead:       0 x_centroid{atomic_unit}  cell{atomic_unit}
       H -2.29066e+00  0.00000e+00  0.00000e+00
1
# CELL(abcABC):  300.00000   300.00000   300.00000    90.00000    90.00000    90.00000  Step:          13  Bead:       0 x_centroid{atomic_unit}  cell{atomic_unit}
       H -2.29593e+00  0.00000e+00  0.00000e+00
1
# CELL(abcABC):  300.00000   300.00000   300.00000    90.00000    90.00000    90.00000  Step:          14  Bead:       0 x_centroid{atomic_unit}  cell{atomic_unit}
       H -2.29943e+00  0.00000e+00  0.00000e+00
1
# CELL(abcABC):  300.00000   300.00000   300.00000    90.00000    90.00000    90.00000  Step:          15  Bead:       0 x_centroid{atomic_unit}  cell{atomic_unit}
       H -2.30114e+00  0.00000e+00  0.00000e+00
1
# CELL(abcABC):  300.00000   300.00000   300.00000    90.00000    90.00000    90.00000  Step:          16  Bead:       0 x_centroid{atomic_unit}  cell{atomic_unit}
       H -2.30102e+00  0.00000e+00  0.00000e+00
1
# CELL(abcABC):  300.00000   300.00000   300.00000    90.00000    90.00000    90.00000  Step:          17  Bead:       0 x_centroid{atomic_unit}  cell{atomic_unit}
       H -2.29905e+00  0.00000e+00  0.00000e+00
1
# CELL(abcABC):  300.00000   300.00000   300.00000    90.00000    90.00000    90.00000  Step:          18  Bead:       0 x_centroid{atomic_unit}  cell{atomic_unit}
       H -2.29520e+00  0.00000e+00  0.00000e+00
1
# CELL(abcABC):  300.00000   300.00000   300.00000    90.00000    90.00000    90.00000  Step:          19  Bead:       0 x_centroid{atomic_unit}  cell{atomic_unit}
       H -2.28948e+00  0.00000e+00  0.00000e+00
1
# CELL(abcABC):  300.00000   300.00000   300.00000    90.00000    90.00000    90.00000  Step:          20  Bead:       0 x_centroid{atomic_unit}  cell{atomic_unit}
       H -2.28191e+00  0.00000e+00  0.00000e+00
1
# CELL(abcABC):  300.00000   300.00000   300.00000    90.00000    90.00000    90.00000  Step:          21  Bead:       0 x_centroid{atomic_unit}  cell{atomic_unit}
       H -2.27255e+00  0.00000e+00  0.00000e+00
1
# CELL(abcABC):  300.00000   300.00000   300.00000    90.00000    90.00000    90.00000  Step:          22  Bead:       0 x_centroid{atomic_unit}  cell{atomic_unit}
       H -2.26146e+00  0.00000e+00  0.00000e+00
1
# CELL(abcABC):  300.00000   300.00000   300.00000    90.00000    90.00000    90.00000  Step:          23  Bead:       0 x_centroid{atomic_unit}  cell{atomic_unit}
       H -2.24868e+00  0.00000e+00  0.00000e+00
1
# CELL(abcABC):  300.00000   300.00000   300.00000    90.00000    90.00000    90.00000  Step:          24  Bead:       0 x_centroid{atomic_unit}  cell{atomic_unit}
       H -2.23427e+00  0.00000e+00  0.00000e+00
1
# CELL(abcABC):  300.00000   300.00000   300.00000    90.00000    90.00000    90.00000  Step:          25  Bead:       0 x_centroid{atomic_unit}  cell{atomic_unit}
       H -2.21831e+00  0.00000e+00  0.00000e+00
1
# CELL(abcABC):  300.00000   300.00000   300.00000    90.00000    90.00000    90.00000  Step:          26  Bead:       0 x_centroid{atomic_unit}  cell{atomic_unit}
       H -2.20088e+00  0.00000e+00  0.00000e+00
1
# CELL(abcABC):  300.00000   300.00000   300.00000    90.00000    90.00000    90.00000  Step:          27  Bead:       0 x_centroid{atomic_unit}  cell{atomic_unit}
       H -2.18209e+00  0.00000e+00  0.00000e+00
1
# CELL(abcABC):  300.00000   300.00000   300.00000    90.00000    90.00000    90.00000  Step:          28  Bead:       0 x_centroid{atomic_unit}  cell{atomic_unit}
       H -2.16208e+00  0.00000e+00  0.00000e+00
1
# CELL(abcABC):  300.00000   300.00000   300.00000    90.00000    90.00000    90.00000  Step:          29  Bead:       0 x_centroid{atomic_unit}  cell{atomic_unit}
       H -2.14100e+00  0.00000e+00  0.00000e+00
1
# CELL(abcABC):  300.00000   300.00000   300.00000    90.00000    90.00000    90.00000  Step:          30  Bead:       0 x_centroid{atomic_unit}  cell{atomic_unit}
       H -2.11899e+00  0.00000e+00  0.00000e+00
1
# CELL(abcABC):  300.00000   300.00000   300.00000    90.00000    90.00000    90.00000  Step:          31  Bead:       0 x_centroid{atomic_unit}  cell{atomic_unit}
       H -2.09620e+00  0.00000e+00  0.00000e+00
1
# CELL(abcABC):  300.00000   300.00000   300.00000    90.00000    90.00000    90.00000  Step:          32  Bead:       0 x_centroid{atomic_unit}  cell{atomic_unit}
       H -2.07273e+00  0.00000e+00  0.00000e+00
1
# CELL(abcABC):  300.00000   300.00000   300.00000    90.00000    90.00000    90.00000  Step:          33  Bead:       0 x_centroid{atomic_unit}  cell{atomic_unit}
       H -2.04870e+00  0.00000e+00  0.00000e+00
1
# CELL(abcABC):  300.00000   300.00000   300.00000    90.00000    90.00000    90.00000  Step:          34  Bead:       0 x_centroid{atomic_unit}  cell{atomic_unit}
       H -2.02421e+00  0.00000e+00  0.00000e+00
1
# CELL(abcABC):  300.00000   300.00000   300.00000    90.00000    90.00000    90.00000  Step:          35  Bead:       0 x_centroid{atomic_unit}  cell{atomic_unit}
       H -1.99937e+00  0.00000e+00  0.00000e+00
1
# CELL(abcABC):  300.00000   300.00000   300.00000    90.00000    90.00000    90.00000  Step:          36  Bead:       0 x_centroid{atomic_unit}  cell{atomic_unit}
       H -1.97429e+00  0.00000e+00  0.00000e+00
1
# CELL(abcABC):  300.00000   300.00000   300.00000    90.00000    90.00000    90.00000  Step:          37  Bead:       0 x_centroid{atomic_unit}  cell{atomic_unit}
       H -1.94907e+00  0.00000e+00  0.00000e+00
1
# CELL(abcABC):  300.00000   300.00000   300.00000    90.00000    90.00000    90.00000  Step:          38  Bead:       0 x_centroid{atomic_unit}  cell{atomic_unit}
       H -1.92382e+00  0.00000e+00  0.00000e+00
1
# CELL(abcABC):  300.00000   300.00000   300.00000    90.00000    90.00000    90.00000  Step:          39  Bead:       0 x_centroid{atomic_unit}  cell{atomic_unit}
       H -1.89863e+00  0.00000e+00  0.00000e+00
1
# CELL(abcABC):  300.00000   300.00000   300.00000    90.00000    90.00000    90.00000  Step:          40  Bead:       0 x_centroid{atomic_unit}  cell{atomic_unit}
       H -1.87360e+00  0.00000e+00  0.00000e+00
1
# CELL(abcABC):  300.00000   300.00000   300.00000    90.00000    90.00000    90.00000  Step:          41  Bead:       0 x_centroid{atomic_unit}  cell{atomic_unit}
       H -1.84880e+00  0.00000e+00  0.00000e+00
1
# CELL(abcABC):  300.00000   300.00000   300.00000    90.00000    90.00000    90.00000  Step:          42  Bead:       0 x_centroid{atomic_unit}  cell{atomic_unit}
       H -1.82434e+00  0.00000e+00  0.00000e+00
1
# CELL(abcABC):  300.00000   300.00000   300.00000    90.00000    90.00000    90.00000  Step:          43  Bead:       0 x_centroid{atomic_unit}  cell{atomic_unit}
       H -1.80030e+00  0.00000e+00  0.00000e+00
1
# CELL(abcABC):  300.00000   300.00000   300.00000    90.00000    90.00000    90.00000  Step:          44  Bead:       0 x_centroid{atomic_unit}  cell{atomic_unit}
       H -1.77677e+00  0.00000e+00  0.00000e+00
1
# CELL(abcABC):  300.00000   300.00000   300.00000    90.00000    90.00000    90.00000  Step:          45  Bead:       0 x_centroid{atomic_unit}  cell{atomic_unit}
       H -1.75385e+00  0.00000e+00  0.00000e+00
1
# CELL(abcABC):  300.00000   300.00000   300.00000    90.00000    90.00000    90.00000  Step:          46  Bead:       0 x_centroid{atomic_unit}  cell{atomic_unit}
       H -1.73161e+00  0.00000e+00  0.00000e+00
1
# CELL(abcABC):  300.00000   300.00000   300.00000    90.00000    90.00000    90.00000  Step:          47  Bead:       0 x_centroid{atomic_unit}  cell{atomic_unit}
       H -1.71013e+00  0.00000e+00  0.00000e+00
1
# CELL(abcABC):  300.00000   300.00000   300.00000    90.00000    90.00000    90.00000  Step:          48  Bead:       0 x_centroid{atomic_unit}  cell{atomic_unit}
       H -1.68947e+00  0.00000e+00  0.00000e+00
1
# CELL(abcABC):  300.00000   300.00000   300.00000    90.00000    90.00000    90.00000  Step:          49  Bead:       0 x_centroid{atomic_unit}  cell{atomic_unit}
       H -1.66970e+00  0.00000e+00  0.00000e+00
1
# CELL(abcABC):  300.00000   300.00000   300.00000    90.00000    90.00000    90.00000  Step:          50  Bead:       0 x_centroid{atomic_unit}  cell{atomic_unit}
       H -1.65087e+00  0.00000e+00  0.00000e+00
1
# CELL(abcABC):  300.00000   300.00000   300.00000    90.00000    90.00000    90.00000  Step:          51  Bead:       0 x_centroid{atomic_unit}  cell{atomic_unit}
       H -1.63304e+00  0.00000e+00  0.00000e+00
1
# CELL(abcABC):  300.00000   300.00000   300.00000    90.00000    90.00000    90.00000  Step:          52  Bead:       0 x_centroid{atomic_unit}  cell{atomic_unit}
       H -1.61625e+00  0.00000e+00  0.00000e+00
1
# CELL(abcABC):  300.00000   300.00000   300.00000    90.00000    90.00000    90.00000  Step:          53  Bead:       0 x_centroid{atomic_unit}  cell{atomic_unit}
       H -1.60055e+00  0.00000e+00  0.00000e+00
1
# CELL(abcABC):  300.00000   300.00000   300.00000    90.00000    90.00000    90.00000  Step:          54  Bead:       0 x_centroid{atomic_unit}  cell{atomic_unit}
       H -1.58598e+00  0.00000e+00  0.00000e+00
1
# CELL(abcABC):  300.00000   300.00000   300.00000    90.00000    90.00000    90.00000  Step:          55  Bead:       0 x_centroid{atomic_unit}  cell{atomic_unit}
       H -1.57257e+00  0.00000e+00  0.00000e+00
1
# CELL(abcABC):  300.00000   300.00000   300.00000    90.00000    90.00000    90.00000  Step:          56  Bead:       0 x_centroid{atomic_unit}  cell{atomic_unit}
       H -1.56034e+00  0.00000e+00  0.00000e+00
1
# CELL(abcABC):  300.00000   300.00000   300.00000    90.00000    90.00000    90.00000  Step:          57  Bead:       0 x_centroid{atomic_unit}  cell{atomic_unit}
       H -1.54932e+00  0.00000e+00  0.00000e+00
1
# CELL(abcABC):  300.00000   300.00000   300.00000    90.00000    90.00000    90.00000  Step:          58  Bead:       0 x_centroid{atomic_unit}  cell{atomic_unit}
       H -1.53952e+00  0.00000e+00  0.00000e+00
1
# CELL(abcABC):  300.00000   300.00000   300.00000    90.00000    90.00000    90.00000  Step:          59  Bead:       0 x_centroid{atomic_unit}  cell{atomic_unit}
       H -1.53094e+00  0.00000e+00  0.00000e+00
1
# CELL(abcABC):  300.00000   300.00000   300.00000    90.00000    90.00000    90.00000  Step:          60  Bead:       0 x_centroid{atomic_unit}  cell{atomic_unit}
       H -1.52361e+00  0.00000e+00  0.00000e+00
1
# CELL(abcABC):  300.00000   300.00000   300.00000    90.00000    90.00000    90.00000  Step:          61  Bead:       0 x_centroid{atomic_unit}  cell{atomic_unit}
       H -1.51751e+00  0.00000e+00  0.00000e+00
1
# CELL(abcABC):  300.00000   300.00000   300.00000    90.00000    90.00000    90.00000  Step:          62  Bead:       0 x_centroid{atomic_unit}  cell{atomic_unit}
       H -1.51266e+00  0.00000e+00  0.00000e+00
1
# CELL(abcABC):  300.00000   300.00000   300.00000    90.00000    90.00000    90.00000  Step:          63  Bead:       0 x_centroid{atomic_unit}  cell{atomic_unit}
       H -1.50904e+00  0.00000e+00  0.00000e+00
1
# CELL(abcABC):  300.00000   300.00000   300.00000    90.00000    90.00000    90.00000  Step:          64  Bead:       0 x_centroid{atomic_unit}  cell{atomic_unit}
       H -1.50665e+00  0.00000e+00  0.00000e+00
1
# CELL(abcABC):  300.00000   300.00000   300.00000    90.00000    90.00000    90.00000  Step:          65  Bead:       0 x_centroid{atomic_unit}  cell{atomic_unit}
       H -1.50549e+00  0.00000e+00  0.00000e+00
1
# CELL(abcABC):  300.00000   300.00000   300.00000    90.00000    90.00000    90.00000  Step:          66  Bead:       0 x_centroid{atomic_unit}  cell{atomic_unit}
       H -1.50554e+00  0.00000e+00  0.00000e+00
1
# CELL(abcABC):  300.00000   300.00000   300.00000    90.00000    90.00000    90.00000  Step:          67  Bead:       0 x_centroid{atomic_unit}  cell{atomic_unit}
       H -1.50680e+00  0.00000e+00  0.00000e+00
1
# CELL(abcABC):  300.00000   300.00000   300.00000    90.00000    90.00000    90.00000  Step:          68  Bead:       0 x_centroid{atomic_unit}  cell{atomic_unit}
       H -1.50926e+00  0.00000e+00  0.00000e+00
1
# CELL(abcABC):  300.00000   300.00000   300.00000    90.00000    90.00000    90.00000  Step:          69  Bead:       0 x_centroid{atomic_unit}  cell{atomic_unit}
       H -1.51289e+00  0.00000e+00  0.00000e+00
1
# CELL(abcABC):  300.00000   300.00000   300.00000    90.00000    90.00000    90.00000  Step:          70  Bead:       0 x_centroid{atomic_unit}  cell{atomic_unit}
       H -1.51770e+00  0.00000e+00  0.00000e+00
1
# CELL(abcABC):  300.00000   300.00000   300.00000    90.00000    90.00000    90.00000  Step:          71  Bead:       0 x_centroid{atomic_unit}  cell{atomic_unit}
       H -1.52367e+00  0.00000e+00  0.00000e+00
1
# CELL(abcABC):  300.00000   300.00000   300.00000    90.00000    90.00000    90.00000  Step:          72  Bead:       0 x_centroid{atomic_unit}  cell{atomic_unit}
       H -1.53081e+00  0.00000e+00  0.00000e+00
1
# CELL(abcABC):  300.00000   300.00000   300.00000    90.00000    90.00000    90.00000  Step:          73  Bead:       0 x_centroid{atomic_unit}  cell{atomic_unit}
       H -1.53910e+00  0.00000e+00  0.00000e+00
1
# CELL(abcABC):  300.00000   300.00000   300.00000    90.00000    90.00000    90.00000  Step:          74  Bead:       0 x_centroid{atomic_unit}  cell{atomic_unit}
       H -1.54855e+00  0.00000e+00  0.00000e+00
1
# CELL(abcABC):  300.00000   300.00000   300.00000    90.00000    90.00000    90.00000  Step:          75  Bead:       0 x_centroid{atomic_unit}  cell{atomic_unit}
       H -1.55914e+00  0.00000e+00  0.00000e+00
1
# CELL(abcABC):  300.00000   300.00000   300.00000    90.00000    90.00000    90.00000  Step:          76  Bead:       0 x_centroid{atomic_unit}  cell{atomic_unit}
       H -1.57085e+00  0.00000e+00  0.00000e+00
1
# CELL(abcABC):  300.00000   300.00000   300.00000    90.00000    90.00000    90.00000  Step:          77  Bead:       0 x_centroid{atomic_unit}  cell{atomic_unit}
       H -1.58367e+00  0.00000e+00  0.00000e+00
1
# CELL(abcABC):  300.00000   300.00000   300.00000    90.00000    90.00000    90.00000  Step:          78  Bead:       0 x_centroid{atomic_unit}  cell{atomic_unit}
       H -1.59758e+00  0.00000e+00  0.00000e+00
1
# CELL(abcABC):  300.00000   300.00000   300.00000    90.00000    90.00000    90.00000  Step:          79  Bead:       0 x_centroid{atomic_unit}  cell{atomic_unit}
       H -1.61256e+00  0.00000e+00  0.00000e+00
1
# CELL(abcABC):  300.00000   300.00000   300.00000    90.00000    90.00000    90.00000  Step:          80  Bead:       0 x_centroid{atomic_unit}  cell{atomic_unit}
       H -1.62859e+00  0.00000e+00  0.00000e+00
1
# CELL(abcABC):  300.00000   300.00000   300.00000    90.00000    90.00000    90.00000  Step:          81  Bead:       0 x_centroid{atomic_unit}  cell{atomic_unit}
       H -1.64565e+00  0.00000e+00  0.00000e+00
1
# CELL(abcABC):  300.00000   300.00000   300.00000    90.00000    90.00000    90.00000  Step:          82  Bead:       0 x_centroid{atomic_unit}  cell{atomic_unit}
       H -1.66368e+00  0.00000e+00  0.00000e+00
1
# CELL(abcABC):  300.00000   300.00000   300.00000    90.00000    90.00000    90.00000  Step:          83  Bead:       0 x_centroid{atomic_unit}  cell{atomic_unit}
       H -1.68263e+00  0.00000e+00  0.00000e+00
1
# CELL(abcABC):  300.00000   300.00000   300.00000    90.00000    90.00000    90.00000  Step:          84  Bead:       0 x_centroid{atomic_unit}  cell{atomic_unit}
       H -1.70244e+00  0.00000e+00  0.00000e+00
1
# CELL(abcABC):  300.00000   300.00000   300.00000    90.00000    90.00000    90.00000  Step:          85  Bead:       0 x_centroid{atomic_unit}  cell{atomic_unit}
       H -1.72305e+00  0.00000e+00  0.00000e+00
1
# CELL(abcABC):  300.00000   300.00000   300.00000    90.00000    90.00000    90.00000  Step:          86  Bead:       0 x_centroid{atomic_unit}  cell{atomic_unit}
       H -1.74438e+00  0.00000e+00  0.00000e+00
1
# CELL(abcABC):  300.00000   300.00000   300.00000    90.00000    90.00000    90.00000  Step:          87  Bead:       0 x_centroid{atomic_unit}  cell{atomic_unit}
       H -1.76640e+00  0.00000e+00  0.00000e+00
1
# CELL(abcABC):  300.00000   300.00000   300.00000    90.00000    90.00000    90.00000  Step:          88  Bead:       0 x_centroid{atomic_unit}  cell{atomic_unit}
       H -1.78905e+00  0.00000e+00  0.00000e+00
1
# CELL(abcABC):  300.00000   300.00000   300.00000    90.00000    90.00000    90.00000  Step:          89  Bead:       0 x_centroid{atomic_unit}  cell{atomic_unit}
       H -1.81227e+00  0.00000e+00  0.00000e+00
1
# CELL(abcABC):  300.00000   300.00000   300.00000    90.00000    90.00000    90.00000  Step:          90  Bead:       0 x_centroid{atomic_unit}  cell{atomic_unit}
       H -1.83599e+00  0.00000e+00  0.00000e+00
1
# CELL(abcABC):  300.00000   300.00000   300.00000    90.00000    90.00000    90.00000  Step:          91  Bead:       0 x_centroid{atomic_unit}  cell{atomic_unit}
       H -1.86012e+00  0.00000e+00  0.00000e+00
1
# CELL(abcABC):  300.00000   300.00000   300.00000    90.00000    90.00000    90.00000  Step:          92  Bead:       0 x_centroid{atomic_unit}  cell{atomic_unit}
       H -1.88458e+00  0.00000e+00  0.00000e+00
1
# CELL(abcABC):  300.00000   300.00000   300.00000    90.00000    90.00000    90.00000  Step:          93  Bead:       0 x_centroid{atomic_unit}  cell{atomic_unit}
       H -1.90928e+00  0.00000e+00  0.00000e+00
1
# CELL(abcABC):  300.00000   300.00000   300.00000    90.00000    90.00000    90.00000  Step:          94  Bead:       0 x_centroid{atomic_unit}  cell{atomic_unit}
       H -1.93411e+00  0.00000e+00  0.00000e+00
1
# CELL(abcABC):  300.00000   300.00000   300.00000    90.00000    90.00000    90.00000  Step:          95  Bead:       0 x_centroid{atomic_unit}  cell{atomic_unit}
       H -1.95899e+00  0.00000e+00  0.00000e+00
1
# CELL(abcABC):  300.00000   300.00000   300.00000    90.00000    90.00000    90.00000  Step:          96  Bead:       0 x_centroid{atomic_unit}  cell{atomic_unit}
       H -1.98383e+00  0.00000e+00  0.00000e+00
1
# CELL(abcABC):  300.00000   300.00000   300.00000    90.00000    90.00000    90.00000  Step:          97  Bead:       0 x_centroid{atomic_unit}  cell{atomic_unit}
       H -2.00854e+00  0.00000e+00  0.00000e+00
1
# CELL(abcABC):  300.00000   300.00000   300.00000    90.00000    90.00000    90.00000  Step:          98  Bead:       0 x_centroid{atomic_unit}  cell{atomic_unit}
       H -2.03302e+00  0.00000e+00  0.00000e+00
1
# CELL(abcABC):  300.00000   300.00000   300.00000    90.00000    90.00000    90.00000  Step:          99  Bead:       0 x_centroid{atomic_unit}  cell{atomic_unit}
       H -2.05716e+00  0.00000e+00  0.00000e+00
1
# CELL(abcABC):  300.00000   300.00000   300.00000    90.00000    90.00000    90.00000  Step:         100  Bead:       0 x_centroid{atomic_unit}  cell{atomic_unit}
       H -2.08084e+00  0.00000e+00  0.00000e+00
