10
# CELL(abcABC):   10.25136     8.48591     7.91805    90.00000    90.00000    90.00000  Step:           0  Bead:       0 positions{atomic_unit}  cell{atomic_unit}
      Li  6.11116e+00  3.24112e+00  2.22452e+00
      Li  1.69885e+01  9.00803e+00  6.18355e+00
      Nb  2.17117e+01  1.15134e+01  7.90247e+00
      Nb  1.08351e+01  5.74533e+00  3.94345e+00
       O  7.30888e+00  5.28919e+00  5.67373e+00
       O  1.00576e+01  2.01294e+00  2.89653e+00
       O  8.47902e+00  6.40294e+00  8.37383e-01
       O  1.06829e+01  9.19418e+00  4.79641e+00
       O  1.36049e+01  5.80087e+00  1.71470e+00
       O  1.24344e+01  4.47794e+00  6.85556e+00
