3
# CELL(abcABC):   10.25136     8.48591     7.91805    90.00000    90.00000    90.00000  Step:           0  Bead:       0 polarization{atomic_unit}  cell{atomic_unit}
    ions  0.00000e+00  0.00000e+00  0.00000e+00
    elec  0.00000e+00  0.00000e+00  0.00000e+00
   total  0.00000e+00  0.00000e+00  0.00000e+00
