2
# CELL(abcABC):    5.64721     5.64721     5.64721    60.00000    60.00000    60.00000  Step:           0  Bead:       0 positions{atomic_unit}  cell{atomic_unit}
      Mg  0.00000e+00  0.00000e+00  0.00000e+00
       O  5.64721e+00  3.26042e+00  2.30546e+00
2
# CELL(abcABC):    5.64721     5.64721     5.64721    60.00000    60.00000    60.00000  Step:           1  Bead:       0 positions{atomic_unit}  cell{atomic_unit}
      Mg -4.15229e-06 -1.37050e-04 -3.27904e-05
       O  5.64722e+00  3.26063e+00  2.30551e+00
2
# CELL(abcABC):    5.64721     5.64721     5.64721    60.00000    60.00000    60.00000  Step:           2  Bead:       0 positions{atomic_unit}  cell{atomic_unit}
      Mg -6.79892e-06 -2.24404e-04 -5.36907e-05
       O  5.64722e+00  3.26076e+00  2.30555e+00
