2
# CELL(abcABC):    5.64721     5.64721     5.64721    60.00000    60.00000    60.00000  Step:           0  Bead:       0 positions{atomic_unit}  cell{atomic_unit}
      Mg  0.00000e+00  0.00000e+00  0.00000e+00
       O  5.64721e+00  3.26042e+00  2.30546e+00
2
# CELL(abcABC):    5.64721     5.64721     5.64721    60.00000    60.00000    60.00000  Step:           1  Bead:       0 positions{atomic_unit}  cell{atomic_unit}
      Mg  1.78956e-04 -6.59712e-05 -1.57842e-05
       O  5.64694e+00  3.26052e+00  2.30549e+00
2
# CELL(abcABC):    5.64721     5.64721     5.64721    60.00000    60.00000    60.00000  Step:           2  Bead:       0 positions{atomic_unit}  cell{atomic_unit}
      Mg  7.19837e-04 -1.31948e-04 -3.15698e-05
       O  5.64612e+00  3.26062e+00  2.30551e+00
2
# CELL(abcABC):    5.64721     5.64721     5.64721    60.00000    60.00000    60.00000  Step:           3  Bead:       0 positions{atomic_unit}  cell{atomic_unit}
      Mg  1.62269e-03 -1.97936e-04 -4.73580e-05
       O  5.64474e+00  3.26072e+00  2.30554e+00
2
# CELL(abcABC):    5.64721     5.64721     5.64721    60.00000    60.00000    60.00000  Step:           4  Bead:       0 positions{atomic_unit}  cell{atomic_unit}
      Mg  2.88758e-03 -2.63941e-04 -6.31502e-05
       O  5.64282e+00  3.26082e+00  2.30556e+00
2
# CELL(abcABC):    5.64721     5.64721     5.64721    60.00000    60.00000    60.00000  Step:           5  Bead:       0 positions{atomic_unit}  cell{atomic_unit}
      Mg  4.51462e-03 -3.29968e-04 -7.89476e-05
       O  5.64035e+00  3.26092e+00  2.30558e+00
2
# CELL(abcABC):    5.64721     5.64721     5.64721    60.00000    60.00000    60.00000  Step:           6  Bead:       0 positions{atomic_unit}  cell{atomic_unit}
      Mg  6.50394e-03 -3.96021e-04 -9.47515e-05
       O  5.63733e+00  3.26102e+00  2.30561e+00
2
# CELL(abcABC):    5.64721     5.64721     5.64721    60.00000    60.00000    60.00000  Step:           7  Bead:       0 positions{atomic_unit}  cell{atomic_unit}
      Mg  8.85570e-03 -4.62108e-04 -1.10563e-04
       O  5.63376e+00  3.26112e+00  2.30563e+00
2
# CELL(abcABC):    5.64721     5.64721     5.64721    60.00000    60.00000    60.00000  Step:           8  Bead:       0 positions{atomic_unit}  cell{atomic_unit}
      Mg  1.15701e-02 -5.28233e-04 -1.26384e-04
       O  5.62963e+00  3.26122e+00  2.30566e+00
2
# CELL(abcABC):    5.64721     5.64721     5.64721    60.00000    60.00000    60.00000  Step:           9  Bead:       0 positions{atomic_unit}  cell{atomic_unit}
      Mg  1.46473e-02 -5.94402e-04 -1.42216e-04
       O  5.62496e+00  3.26132e+00  2.30568e+00
2
# CELL(abcABC):    5.64721     5.64721     5.64721    60.00000    60.00000    60.00000  Step:          10  Bead:       0 positions{atomic_unit}  cell{atomic_unit}
      Mg  1.80877e-02 -6.60620e-04 -1.58059e-04
       O  5.61973e+00  3.26142e+00  2.30570e+00
