2
# CELL(abcABC):    2.98837     2.98837     2.98837    60.00000    60.00000    60.00000  Step:           0  Bead:       0 positions{angstrom}  cell{angstrom}
      Mg  0.00000e+00  0.00000e+00  0.00000e+00
       O  1.11820e+00  1.11820e+00  1.11820e+00
