2
# CELL(abcABC):    5.64721     5.64721     5.64721    60.00000    60.00000    60.00000  Step:           0  Bead:       0 positions{atomic_unit}  cell{atomic_unit}
      Mg  0.00000e+00  0.00000e+00  0.00000e+00
       O  5.64721e+00  3.26042e+00  2.30546e+00
