3
# CELL(abcABC):    5.64721     5.64721     5.64721    60.00000    60.00000    60.00000  Step:           0  Bead:       0 polarization{atomic_unit}  cell{atomic_unit}
    ions -0.00000e+00 -0.00000e+00  0.00000e+00
  electr  0.00000e+00  0.00000e+00 -0.00000e+00
   total  0.00000e+00  0.00000e+00  0.00000e+00
3
# CELL(abcABC):    5.64721     5.64721     5.64721    60.00000    60.00000    60.00000  Step:           1  Bead:       0 polarization{atomic_unit}  cell{atomic_unit}
    ions  0.00000e+00  0.00000e+00  0.00000e+00
  electr -0.00000e+00 -1.40000e-04 -3.00000e-05
   total -0.00000e+00 -1.40000e-04 -3.00000e-05
3
# CELL(abcABC):    5.64721     5.64721     5.64721    60.00000    60.00000    60.00000  Step:           2  Bead:       0 polarization{atomic_unit}  cell{atomic_unit}
    ions  0.00000e+00  1.00000e-05  0.00000e+00
  electr -1.00000e-05 -2.90000e-04 -7.00000e-05
   total -1.00000e-05 -2.80000e-04 -7.00000e-05
