10
# CELL(abcABC):    7.91805     9.01723    13.08597    55.78895    63.93000    70.23330  Step:           0  Bead:       0 positions{atomic_unit}  cell{atomic_unit}
      Nb  7.90276e+00  1.15138e+01  2.17124e+01
      Nb  3.94356e+00  5.74574e+00  1.08357e+01
      Li  2.22391e+00  3.23931e+00  6.10812e+00
      Li  6.18208e+00  9.00737e+00  1.69860e+01
       O  5.67433e+00  5.28877e+00  7.30980e+00
       O  2.89597e+00  2.01357e+00  1.00586e+01
       O  8.38237e-01  6.40371e+00  8.47915e+00
       O  4.79722e+00  9.19381e+00  1.06840e+01
       O  1.71524e+00  5.80183e+00  1.36051e+01
       O  6.85497e+00  4.47806e+00  1.24353e+01
10
# CELL(abcABC):    7.91805     9.01723    13.08597    55.78895    63.93000    70.23330  Step:           1  Bead:       0 positions{atomic_unit}  cell{atomic_unit}
      Nb  7.90270e+00  1.15138e+01  2.17123e+01
      Nb  3.94352e+00  5.74584e+00  1.08357e+01
      Li  2.22406e+00  3.23921e+00  6.10814e+00
      Li  6.18253e+00  9.00732e+00  1.69856e+01
       O  5.67429e+00  5.28853e+00  7.30962e+00
       O  2.89626e+00  2.01346e+00  1.00587e+01
       O  8.38423e-01  6.40342e+00  8.47922e+00
       O  4.79677e+00  9.19358e+00  1.06842e+01
       O  1.71569e+00  5.80165e+00  1.36054e+01
       O  6.85490e+00  4.47845e+00  1.24355e+01
10
# CELL(abcABC):    7.91805     9.01723    13.08597    55.78895    63.93000    70.23330  Step:           2  Bead:       0 positions{atomic_unit}  cell{atomic_unit}
      Nb  7.90264e+00  1.15139e+01  2.17122e+01
      Nb  3.94347e+00  5.74595e+00  1.08356e+01
      Li  2.22421e+00  3.23911e+00  6.10816e+00
      Li  6.18299e+00  9.00727e+00  1.69852e+01
       O  5.67425e+00  5.28829e+00  7.30944e+00
       O  2.89655e+00  2.01335e+00  1.00589e+01
       O  8.38609e-01  6.40313e+00  8.47928e+00
       O  4.79631e+00  9.19336e+00  1.06845e+01
       O  1.71613e+00  5.80147e+00  1.36057e+01
       O  6.85482e+00  4.47885e+00  1.24358e+01
10
# CELL(abcABC):    7.91805     9.01723    13.08597    55.78895    63.93000    70.23330  Step:           3  Bead:       0 positions{atomic_unit}  cell{atomic_unit}
      Nb  7.90258e+00  1.15139e+01  2.17121e+01
      Nb  3.94343e+00  5.74605e+00  1.08356e+01
      Li  2.22435e+00  3.23902e+00  6.10818e+00
      Li  6.18344e+00  9.00722e+00  1.69848e+01
       O  5.67421e+00  5.28806e+00  7.30927e+00
       O  2.89684e+00  2.01324e+00  1.00591e+01
       O  8.38795e-01  6.40284e+00  8.47935e+00
       O  4.79585e+00  9.19314e+00  1.06848e+01
       O  1.71658e+00  5.80128e+00  1.36060e+01
       O  6.85475e+00  4.47925e+00  1.24360e+01
10
# CELL(abcABC):    7.91805     9.01723    13.08597    55.78895    63.93000    70.23330  Step:           4  Bead:       0 positions{atomic_unit}  cell{atomic_unit}
      Nb  7.90252e+00  1.15139e+01  2.17120e+01
      Nb  3.94338e+00  5.74615e+00  1.08356e+01
      Li  2.22450e+00  3.23892e+00  6.10820e+00
      Li  6.18390e+00  9.00717e+00  1.69844e+01
       O  5.67416e+00  5.28783e+00  7.30909e+00
       O  2.89714e+00  2.01313e+00  1.00593e+01
       O  8.38980e-01  6.40254e+00  8.47942e+00
       O  4.79539e+00  9.19293e+00  1.06851e+01
       O  1.71702e+00  5.80110e+00  1.36063e+01
       O  6.85468e+00  4.47964e+00  1.24363e+01
