10
# CELL(abcABC):    8.01439     9.12679    13.24973    55.77532    63.91948    70.22608  Step:           0  Bead:       0 positions{atomic_unit}  cell{atomic_unit}
      Nb  7.99322e+00  1.16454e+01  2.19694e+01
      Nb  3.98603e+00  5.80729e+00  1.09556e+01
      Li  2.24726e+00  3.27412e+00  6.17667e+00
      Li  6.25452e+00  9.11234e+00  1.71906e+01
       O  5.75653e+00  5.33381e+00  7.42072e+00
       O  2.90771e+00  2.04996e+00  1.01979e+01
       O  8.67540e-01  6.50318e+00  8.57954e+00
       O  4.87476e+00  9.28844e+00  1.08340e+01
       O  1.74934e+00  5.89803e+00  1.37683e+01
       O  6.91488e+00  4.53878e+00  1.26095e+01
10
# CELL(abcABC):    8.01439     9.12679    13.24973    55.77532    63.91948    70.22608  Step:           1  Bead:       0 positions{atomic_unit}  cell{atomic_unit}
      Nb  7.99316e+00  1.16455e+01  2.19693e+01
      Nb  3.98599e+00  5.80740e+00  1.09555e+01
      Li  2.24740e+00  3.27403e+00  6.17669e+00
      Li  6.25497e+00  9.11229e+00  1.71902e+01
       O  5.75649e+00  5.33356e+00  7.42055e+00
       O  2.90799e+00  2.04985e+00  1.01981e+01
       O  8.67727e-01  6.50289e+00  8.57960e+00
       O  4.87430e+00  9.28821e+00  1.08343e+01
       O  1.74978e+00  5.89785e+00  1.37686e+01
       O  6.91480e+00  4.53917e+00  1.26097e+01
10
# CELL(abcABC):    8.01439     9.12679    13.24973    55.77532    63.91948    70.22608  Step:           2  Bead:       0 positions{atomic_unit}  cell{atomic_unit}
      Nb  7.99310e+00  1.16455e+01  2.19692e+01
      Nb  3.98594e+00  5.80750e+00  1.09555e+01
      Li  2.24755e+00  3.27393e+00  6.17670e+00
      Li  6.25543e+00  9.11224e+00  1.71898e+01
       O  5.75645e+00  5.33332e+00  7.42037e+00
       O  2.90828e+00  2.04973e+00  1.01982e+01
       O  8.67914e-01  6.50260e+00  8.57966e+00
       O  4.87385e+00  9.28798e+00  1.08346e+01
       O  1.75023e+00  5.89767e+00  1.37689e+01
       O  6.91472e+00  4.53957e+00  1.26100e+01
10
# CELL(abcABC):    8.01439     9.12679    13.24973    55.77532    63.91948    70.22608  Step:           3  Bead:       0 positions{atomic_unit}  cell{atomic_unit}
      Nb  7.99304e+00  1.16455e+01  2.19692e+01
      Nb  3.98589e+00  5.80760e+00  1.09555e+01
      Li  2.24770e+00  3.27383e+00  6.17672e+00
      Li  6.25588e+00  9.11219e+00  1.71894e+01
       O  5.75642e+00  5.33308e+00  7.42019e+00
       O  2.90856e+00  2.04962e+00  1.01984e+01
       O  8.68101e-01  6.50231e+00  8.57972e+00
       O  4.87339e+00  9.28776e+00  1.08348e+01
       O  1.75068e+00  5.89749e+00  1.37693e+01
       O  6.91464e+00  4.53997e+00  1.26102e+01
10
# CELL(abcABC):    8.01439     9.12679    13.24973    55.77532    63.91948    70.22608  Step:           4  Bead:       0 positions{atomic_unit}  cell{atomic_unit}
      Nb  7.99298e+00  1.16455e+01  2.19691e+01
      Nb  3.98585e+00  5.80770e+00  1.09554e+01
      Li  2.24785e+00  3.27374e+00  6.17674e+00
      Li  6.25634e+00  9.11214e+00  1.71890e+01
       O  5.75638e+00  5.33284e+00  7.42002e+00
       O  2.90885e+00  2.04951e+00  1.01986e+01
       O  8.68289e-01  6.50202e+00  8.57978e+00
       O  4.87293e+00  9.28753e+00  1.08351e+01
       O  1.75113e+00  5.89731e+00  1.37696e+01
       O  6.91456e+00  4.54037e+00  1.26104e+01
